
     Program PWSCF v.6.4.1 starts on 15Jun2022 at 23:25:30 

     This program is part of the open-source Quantum ESPRESSO suite
     for quantum simulation of materials; please cite
         "P. Giannozzi et al., J. Phys.:Condens. Matter 21 395502 (2009);
         "P. Giannozzi et al., J. Phys.:Condens. Matter 29 465901 (2017);
          URL http://www.quantum-espresso.org", 
     in publications or presentations arising from this work. More details at
     http://www.quantum-espresso.org/quote

     Parallel version (MPI), running on    64 processors

     MPI processes distributed on     1 nodes
     K-points division:     npool     =       4
     R & G space division:  proc/nbgrp/npool/nimage =      16
     Waiting for input...
     Reading input from standard input
Warning: card &IONS ignored
Warning: card   UPSCALE           = 100.D0, ignored
Warning: card / ignored
Warning: card &CELL ignored
Warning: card   CELL_DYNAMICS     = 'BFGS' ignored
Warning: card   PRESS_CONV_THR    = 0.5D0 ignored
Warning: card   CELL_DOFREE = 'ALL' ignored
Warning: card / ignored

     Current dimensions of program PWSCF are:
     Max number of different atomic species (ntypx) = 10
     Max number of k-points (npk) =  40000
     Max angular momentum in pseudopotentials (lmaxx) =  3

     Subspace diagonalization in iterative solution of the eigenvalue problem:
     one sub-group per band group will be used
     scalapack distributed-memory algorithm (size of sub-group:  2*  2 procs)

 
     Parallelization info
     --------------------
     sticks:   dense  smooth     PW     G-vecs:    dense   smooth      PW
     Min         108      57     18                 4766     1849     320
     Max         109      58     19                 4769     1856     324
     Sum        1735     925    295                76273    29653    5157
 


     bravais-lattice index     =            0
     lattice parameter (alat)  =       6.4626  a.u.
     unit-cell volume          =     306.7381 (a.u.)^3
     number of atoms/cell      =            4
     number of atomic types    =            3
     number of electrons       =        42.00
     number of Kohn-Sham states=           21
     kinetic-energy cutoff     =      80.0000  Ry
     charge density cutoff     =     600.0000  Ry
     convergence threshold     =      1.0E-06
     mixing beta               =       0.5000
     number of iterations used =            8  plain     mixing
     Exchange-correlation      = SLA  PW   PSX  PSC ( 1  4 10  8 0 0)
     Using LIBXC version       =    4   3   4

     celldm(1)=   6.462573  celldm(2)=   0.000000  celldm(3)=   0.000000
     celldm(4)=   0.000000  celldm(5)=   0.000000  celldm(6)=   0.000000

     crystal axes: (cart. coord. in units of alat)
               a(1) = (   1.000000   0.000000   0.000000 )  
               a(2) = (  -0.500000   0.866024  -0.000000 )  
               a(3) = (   0.000001  -0.000000   1.312266 )  

     reciprocal axes: (cart. coord. in units 2 pi/alat)
               b(1) = (  1.000000  0.577351 -0.000000 )  
               b(2) = ( -0.000000  1.154703  0.000000 )  
               b(3) = ( -0.000000  0.000000  0.762041 )  


     PseudoPot. # 1 for Mg read from file:
     ./GBRV_PBEsol/mg_pbesol_v1.4.uspp.F.UPF
     MD5 check sum: 4059f37963cf5867752dbf5ab2400678
     Pseudo is Ultrasoft, Zval = 10.0
     Generated by new atomic code, or converted to UPF format
     Using radial grid of  821 points,  7 beta functions with: 
                l(1) =   0
                l(2) =   0
                l(3) =   0
                l(4) =   1
                l(5) =   1
                l(6) =   2
                l(7) =   2
     Q(r) pseudized with  8 coefficients,  rinner =    1.200   1.200   1.200
                                                       1.200   1.200

     PseudoPot. # 2 for Zn read from file:
     ./GBRV_PBEsol/zn_pbesol_v1.uspp.F.UPF
     MD5 check sum: 7d8615e52efe7c1e2b1899de8658bae2
     Pseudo is Ultrasoft, Zval = 20.0
     Generated by new atomic code, or converted to UPF format
     Using radial grid of  943 points,  6 beta functions with: 
                l(1) =   0
                l(2) =   0
                l(3) =   1
                l(4) =   1
                l(5) =   2
                l(6) =   2
     Q(r) pseudized with  8 coefficients,  rinner =    1.100   1.100   1.100
                                                       1.100   1.100

     PseudoPot. # 3 for O  read from file:
     ./GBRV_PBEsol/o_pbesol_v1.2.uspp.F.UPF
     MD5 check sum: 501638753501ef6325af9037351f7734
     Pseudo is Ultrasoft + core correction, Zval =  6.0
     Generated by new atomic code, or converted to UPF format
     Using radial grid of  737 points,  5 beta functions with: 
                l(1) =   0
                l(2) =   0
                l(3) =   1
                l(4) =   1
                l(5) =   2
     Q(r) pseudized with  8 coefficients,  rinner =    0.900   0.900   0.900
                                                       0.900   0.900

     atomic species   valence    mass     pseudopotential
        Mg            10.00    24.30500     Mg( 1.00)
        Zn            20.00    65.38000     Zn( 1.00)
        O              6.00    15.99900     O ( 1.00)

     No symmetry found


                                    s                        frac. trans.

      isym =  1     identity                                     

 cryst.   s( 1) = (     1          0          0      )
                  (     0          1          0      )
                  (     0          0          1      )

 cart.    s( 1) = (  1.0000000  0.0000000 -0.0000000 )
                  (  0.0000000  1.0000000  0.0000000 )
                  (  0.0000000 -0.0000000  1.0000000 )


   Cartesian axes

     site n.     atom                  positions (alat units)
         1           O   tau(   1) = (   0.5000002   0.2886749   0.0096398  )
         2           O   tau(   2) = (   0.0000004   0.5773479   0.6657723  )
         3           Zn  tau(   3) = (   0.5000002   0.2886740   0.6088833  )
         4           Mg  tau(   4) = (   0.0000003   0.5773495   1.2693262  )

   Crystallographic axes

     site n.     atom                  positions (cryst. coord.)
         1           O   tau(   1) = (  0.6666670  0.3333337  0.0073459  )
         2           O   tau(   2) = (  0.3333329  0.6666657  0.5073458  )
         3           Zn  tau(   3) = (  0.6666664  0.3333329  0.4639939  )
         4           Mg  tau(   4) = (  0.3333337  0.6666677  0.9672785  )

     number of k points=   260
                       cart. coord. in units 2pi/alat
        k(    1) = (   0.0000000   0.0000000   0.0000000), wk =   0.0039062
        k(    2) = (  -0.0000000   0.0000000   0.0952551), wk =   0.0078125
        k(    3) = (  -0.0000001   0.0000000   0.1905102), wk =   0.0078125
        k(    4) = (  -0.0000001   0.0000000   0.2857653), wk =   0.0078125
        k(    5) = (   0.0000001  -0.0000000  -0.3810205), wk =   0.0039062
        k(    6) = (  -0.0000000   0.1443379   0.0000001), wk =   0.0078125
        k(    7) = (  -0.0000000   0.1443379   0.0952552), wk =   0.0078125
        k(    8) = (  -0.0000001   0.1443379   0.1905103), wk =   0.0078125
        k(    9) = (  -0.0000001   0.1443379   0.2857654), wk =   0.0078125
        k(   10) = (   0.0000001   0.1443378  -0.3810204), wk =   0.0078125
        k(   11) = (   0.0000001   0.1443378  -0.2857653), wk =   0.0078125
        k(   12) = (   0.0000001   0.1443379  -0.1905102), wk =   0.0078125
        k(   13) = (   0.0000000   0.1443379  -0.0952551), wk =   0.0078125
        k(   14) = (  -0.0000000   0.2886758   0.0000001), wk =   0.0078125
        k(   15) = (  -0.0000000   0.2886758   0.0952552), wk =   0.0078125
        k(   16) = (  -0.0000001   0.2886758   0.1905103), wk =   0.0078125
        k(   17) = (  -0.0000001   0.2886758   0.2857654), wk =   0.0078125
        k(   18) = (   0.0000001   0.2886757  -0.3810203), wk =   0.0078125
        k(   19) = (   0.0000001   0.2886757  -0.2857652), wk =   0.0078125
        k(   20) = (   0.0000000   0.2886757  -0.1905101), wk =   0.0078125
        k(   21) = (   0.0000000   0.2886757  -0.0952550), wk =   0.0078125
        k(   22) = (  -0.0000000   0.4330136   0.0000002), wk =   0.0078125
        k(   23) = (  -0.0000000   0.4330136   0.0952553), wk =   0.0078125
        k(   24) = (  -0.0000001   0.4330136   0.1905104), wk =   0.0078125
        k(   25) = (  -0.0000001   0.4330137   0.2857655), wk =   0.0078125
        k(   26) = (   0.0000001   0.4330136  -0.3810203), wk =   0.0078125
        k(   27) = (   0.0000001   0.4330136  -0.2857652), wk =   0.0078125
        k(   28) = (   0.0000000   0.4330136  -0.1905101), wk =   0.0078125
        k(   29) = (   0.0000000   0.4330136  -0.0952550), wk =   0.0078125
        k(   30) = (   0.0000000  -0.5773515  -0.0000002), wk =   0.0039062
        k(   31) = (  -0.0000000  -0.5773515   0.0952549), wk =   0.0078125
        k(   32) = (  -0.0000000  -0.5773515   0.1905100), wk =   0.0078125
        k(   33) = (  -0.0000001  -0.5773515   0.2857651), wk =   0.0078125
        k(   34) = (   0.0000001  -0.5773515  -0.3810207), wk =   0.0039062
        k(   35) = (   0.1250000   0.0721689  -0.0000000), wk =   0.0078125
        k(   36) = (   0.1250000   0.0721689   0.0952551), wk =   0.0078125
        k(   37) = (   0.1249999   0.0721690   0.1905102), wk =   0.0078125
        k(   38) = (   0.1249999   0.0721690   0.2857653), wk =   0.0078125
        k(   39) = (   0.1250001   0.0721689  -0.3810205), wk =   0.0078125
        k(   40) = (   0.1250001   0.0721689  -0.2857654), wk =   0.0078125
        k(   41) = (   0.1250001   0.0721689  -0.1905102), wk =   0.0078125
        k(   42) = (   0.1250000   0.0721689  -0.0952551), wk =   0.0078125
        k(   43) = (   0.1250000   0.2165068   0.0000000), wk =   0.0078125
        k(   44) = (   0.1250000   0.2165068   0.0952551), wk =   0.0078125
        k(   45) = (   0.1249999   0.2165068   0.1905103), wk =   0.0078125
        k(   46) = (   0.1249999   0.2165068   0.2857654), wk =   0.0078125
        k(   47) = (   0.1250001   0.2165068  -0.3810204), wk =   0.0078125
        k(   48) = (   0.1250001   0.2165068  -0.2857653), wk =   0.0078125
        k(   49) = (   0.1250000   0.2165068  -0.1905102), wk =   0.0078125
        k(   50) = (   0.1250000   0.2165068  -0.0952551), wk =   0.0078125
        k(   51) = (   0.1250000   0.3608447   0.0000001), wk =   0.0078125
        k(   52) = (   0.1250000   0.3608447   0.0952552), wk =   0.0078125
        k(   53) = (   0.1249999   0.3608447   0.1905103), wk =   0.0078125
        k(   54) = (   0.1249999   0.3608447   0.2857654), wk =   0.0078125
        k(   55) = (   0.1250001   0.3608446  -0.3810204), wk =   0.0078125
        k(   56) = (   0.1250001   0.3608446  -0.2857653), wk =   0.0078125
        k(   57) = (   0.1250000   0.3608447  -0.1905101), wk =   0.0078125
        k(   58) = (   0.1250000   0.3608447  -0.0952550), wk =   0.0078125
        k(   59) = (   0.1250000   0.5051826   0.0000001), wk =   0.0078125
        k(   60) = (   0.1249999   0.5051826   0.0952553), wk =   0.0078125
        k(   61) = (   0.1249999   0.5051826   0.1905104), wk =   0.0078125
        k(   62) = (   0.1249999   0.5051826   0.2857655), wk =   0.0078125
        k(   63) = (   0.1250001   0.5051825  -0.3810203), wk =   0.0078125
        k(   64) = (   0.1250001   0.5051825  -0.2857652), wk =   0.0078125
        k(   65) = (   0.1250000   0.5051825  -0.1905101), wk =   0.0078125
        k(   66) = (   0.1250000   0.5051825  -0.0952550), wk =   0.0078125
        k(   67) = (   0.1250000  -0.5051826  -0.0000002), wk =   0.0078125
        k(   68) = (   0.1250000  -0.5051826   0.0952549), wk =   0.0078125
        k(   69) = (   0.1250000  -0.5051825   0.1905100), wk =   0.0078125
        k(   70) = (   0.1249999  -0.5051825   0.2857651), wk =   0.0078125
        k(   71) = (   0.1250001  -0.5051826  -0.3810207), wk =   0.0078125
        k(   72) = (   0.1250001  -0.5051826  -0.2857656), wk =   0.0078125
        k(   73) = (   0.1250001  -0.5051826  -0.1905105), wk =   0.0078125
        k(   74) = (   0.1250001  -0.5051826  -0.0952554), wk =   0.0078125
        k(   75) = (   0.1250000  -0.3608447  -0.0000002), wk =   0.0078125
        k(   76) = (   0.1250000  -0.3608447   0.0952549), wk =   0.0078125
        k(   77) = (   0.1250000  -0.3608447   0.1905100), wk =   0.0078125
        k(   78) = (   0.1249999  -0.3608447   0.2857652), wk =   0.0078125
        k(   79) = (   0.1250001  -0.3608447  -0.3810206), wk =   0.0078125
        k(   80) = (   0.1250001  -0.3608447  -0.2857655), wk =   0.0078125
        k(   81) = (   0.1250001  -0.3608447  -0.1905104), wk =   0.0078125
        k(   82) = (   0.1250000  -0.3608447  -0.0952553), wk =   0.0078125
        k(   83) = (   0.1250000  -0.2165068  -0.0000001), wk =   0.0078125
        k(   84) = (   0.1250000  -0.2165068   0.0952550), wk =   0.0078125
        k(   85) = (   0.1250000  -0.2165068   0.1905101), wk =   0.0078125
        k(   86) = (   0.1249999  -0.2165068   0.2857652), wk =   0.0078125
        k(   87) = (   0.1250001  -0.2165069  -0.3810206), wk =   0.0078125
        k(   88) = (   0.1250001  -0.2165069  -0.2857655), wk =   0.0078125
        k(   89) = (   0.1250001  -0.2165068  -0.1905104), wk =   0.0078125
        k(   90) = (   0.1250000  -0.2165068  -0.0952552), wk =   0.0078125
        k(   91) = (   0.1250000  -0.0721689  -0.0000001), wk =   0.0078125
        k(   92) = (   0.1250000  -0.0721689   0.0952550), wk =   0.0078125
        k(   93) = (   0.1249999  -0.0721689   0.1905102), wk =   0.0078125
        k(   94) = (   0.1249999  -0.0721689   0.2857653), wk =   0.0078125
        k(   95) = (   0.1250001  -0.0721690  -0.3810205), wk =   0.0078125
        k(   96) = (   0.1250001  -0.0721690  -0.2857654), wk =   0.0078125
        k(   97) = (   0.1250001  -0.0721690  -0.1905103), wk =   0.0078125
        k(   98) = (   0.1250000  -0.0721690  -0.0952552), wk =   0.0078125
        k(   99) = (   0.2500000   0.1443379  -0.0000000), wk =   0.0078125
        k(  100) = (   0.2500000   0.1443379   0.0952551), wk =   0.0078125
        k(  101) = (   0.2499999   0.1443379   0.1905102), wk =   0.0078125
        k(  102) = (   0.2499999   0.1443379   0.2857653), wk =   0.0078125
        k(  103) = (   0.2500001   0.1443378  -0.3810205), wk =   0.0078125
        k(  104) = (   0.2500001   0.1443378  -0.2857654), wk =   0.0078125
        k(  105) = (   0.2500001   0.1443378  -0.1905103), wk =   0.0078125
        k(  106) = (   0.2500000   0.1443379  -0.0952552), wk =   0.0078125
        k(  107) = (   0.2500000   0.2886757   0.0000000), wk =   0.0078125
        k(  108) = (   0.2500000   0.2886758   0.0952551), wk =   0.0078125
        k(  109) = (   0.2499999   0.2886758   0.1905102), wk =   0.0078125
        k(  110) = (   0.2499999   0.2886758   0.2857654), wk =   0.0078125
        k(  111) = (   0.2500001   0.2886757  -0.3810204), wk =   0.0078125
        k(  112) = (   0.2500001   0.2886757  -0.2857653), wk =   0.0078125
        k(  113) = (   0.2500000   0.2886757  -0.1905102), wk =   0.0078125
        k(  114) = (   0.2500000   0.2886757  -0.0952551), wk =   0.0078125
        k(  115) = (   0.2500000   0.4330136   0.0000001), wk =   0.0078125
        k(  116) = (   0.2500000   0.4330136   0.0952552), wk =   0.0078125
        k(  117) = (   0.2499999   0.4330136   0.1905103), wk =   0.0078125
        k(  118) = (   0.2499999   0.4330136   0.2857654), wk =   0.0078125
        k(  119) = (   0.2500001   0.4330136  -0.3810204), wk =   0.0078125
        k(  120) = (   0.2500001   0.4330136  -0.2857653), wk =   0.0078125
        k(  121) = (   0.2500000   0.4330136  -0.1905102), wk =   0.0078125
        k(  122) = (   0.2500000   0.4330136  -0.0952550), wk =   0.0078125
        k(  123) = (   0.2500000   0.5773515   0.0000001), wk =   0.0078125
        k(  124) = (   0.2499999   0.5773515   0.0952552), wk =   0.0078125
        k(  125) = (   0.2499999   0.5773515   0.1905103), wk =   0.0078125
        k(  126) = (   0.2499999   0.5773515   0.2857655), wk =   0.0078125
        k(  127) = (   0.2500001   0.5773514  -0.3810203), wk =   0.0078125
        k(  128) = (   0.2500001   0.5773515  -0.2857652), wk =   0.0078125
        k(  129) = (   0.2500000   0.5773515  -0.1905101), wk =   0.0078125
        k(  130) = (   0.2500000   0.5773515  -0.0952550), wk =   0.0078125
        k(  131) = (   0.2500000  -0.4330136  -0.0000003), wk =   0.0078125
        k(  132) = (   0.2500000  -0.4330136   0.0952549), wk =   0.0078125
        k(  133) = (   0.2500000  -0.4330136   0.1905100), wk =   0.0078125
        k(  134) = (   0.2499999  -0.4330136   0.2857651), wk =   0.0078125
        k(  135) = (   0.2500001  -0.4330137  -0.3810207), wk =   0.0078125
        k(  136) = (   0.2500001  -0.4330137  -0.2857656), wk =   0.0078125
        k(  137) = (   0.2500001  -0.4330137  -0.1905105), wk =   0.0078125
        k(  138) = (   0.2500000  -0.4330136  -0.0952554), wk =   0.0078125
        k(  139) = (   0.2500000  -0.2886758  -0.0000002), wk =   0.0078125
        k(  140) = (   0.2500000  -0.2886758   0.0952549), wk =   0.0078125
        k(  141) = (   0.2500000  -0.2886757   0.1905100), wk =   0.0078125
        k(  142) = (   0.2499999  -0.2886757   0.2857651), wk =   0.0078125
        k(  143) = (   0.2500001  -0.2886758  -0.3810207), wk =   0.0078125
        k(  144) = (   0.2500001  -0.2886758  -0.2857655), wk =   0.0078125
        k(  145) = (   0.2500001  -0.2886758  -0.1905104), wk =   0.0078125
        k(  146) = (   0.2500000  -0.2886758  -0.0952553), wk =   0.0078125
        k(  147) = (   0.2500000  -0.1443379  -0.0000002), wk =   0.0078125
        k(  148) = (   0.2500000  -0.1443379   0.0952550), wk =   0.0078125
        k(  149) = (   0.2499999  -0.1443379   0.1905101), wk =   0.0078125
        k(  150) = (   0.2499999  -0.1443379   0.2857652), wk =   0.0078125
        k(  151) = (   0.2500001  -0.1443379  -0.3810206), wk =   0.0078125
        k(  152) = (   0.2500001  -0.1443379  -0.2857655), wk =   0.0078125
        k(  153) = (   0.2500001  -0.1443379  -0.1905104), wk =   0.0078125
        k(  154) = (   0.2500000  -0.1443379  -0.0952553), wk =   0.0078125
        k(  155) = (   0.2500000  -0.0000000  -0.0000001), wk =   0.0078125
        k(  156) = (   0.2500000   0.0000000   0.0952550), wk =   0.0078125
        k(  157) = (   0.2499999   0.0000000   0.1905101), wk =   0.0078125
        k(  158) = (   0.2499999   0.0000000   0.2857652), wk =   0.0078125
        k(  159) = (   0.2500001  -0.0000001  -0.3810206), wk =   0.0078125
        k(  160) = (   0.2500001  -0.0000000  -0.2857654), wk =   0.0078125
        k(  161) = (   0.2500001  -0.0000000  -0.1905103), wk =   0.0078125
        k(  162) = (   0.2500000  -0.0000000  -0.0952552), wk =   0.0078125
        k(  163) = (   0.3750000   0.2165068  -0.0000001), wk =   0.0078125
        k(  164) = (   0.3750000   0.2165068   0.0952550), wk =   0.0078125
        k(  165) = (   0.3749999   0.2165068   0.1905102), wk =   0.0078125
        k(  166) = (   0.3749999   0.2165068   0.2857653), wk =   0.0078125
        k(  167) = (   0.3750001   0.2165068  -0.3810205), wk =   0.0078125
        k(  168) = (   0.3750001   0.2165068  -0.2857654), wk =   0.0078125
        k(  169) = (   0.3750000   0.2165068  -0.1905103), wk =   0.0078125
        k(  170) = (   0.3750000   0.2165068  -0.0952552), wk =   0.0078125
        k(  171) = (   0.3750000   0.3608447  -0.0000000), wk =   0.0078125
        k(  172) = (   0.3750000   0.3608447   0.0952551), wk =   0.0078125
        k(  173) = (   0.3749999   0.3608447   0.1905102), wk =   0.0078125
        k(  174) = (   0.3749999   0.3608447   0.2857653), wk =   0.0078125
        k(  175) = (   0.3750001   0.3608446  -0.3810205), wk =   0.0078125
        k(  176) = (   0.3750001   0.3608446  -0.2857654), wk =   0.0078125
        k(  177) = (   0.3750000   0.3608446  -0.1905102), wk =   0.0078125
        k(  178) = (   0.3750000   0.3608447  -0.0952551), wk =   0.0078125
        k(  179) = (   0.3750000   0.5051825   0.0000000), wk =   0.0078125
        k(  180) = (   0.3749999   0.5051826   0.0952552), wk =   0.0078125
        k(  181) = (   0.3749999   0.5051826   0.1905103), wk =   0.0078125
        k(  182) = (   0.3749999   0.5051826   0.2857654), wk =   0.0078125
        k(  183) = (   0.3750001   0.5051825  -0.3810204), wk =   0.0078125
        k(  184) = (   0.3750001   0.5051825  -0.2857653), wk =   0.0078125
        k(  185) = (   0.3750000   0.5051825  -0.1905102), wk =   0.0078125
        k(  186) = (   0.3750000   0.5051825  -0.0952551), wk =   0.0078125
        k(  187) = (   0.3750000   0.6495204   0.0000001), wk =   0.0078125
        k(  188) = (   0.3749999   0.6495204   0.0952552), wk =   0.0078125
        k(  189) = (   0.3749999   0.6495204   0.1905103), wk =   0.0078125
        k(  190) = (   0.3749999   0.6495205   0.2857654), wk =   0.0078125
        k(  191) = (   0.3750001   0.6495204  -0.3810204), wk =   0.0078125
        k(  192) = (   0.3750001   0.6495204  -0.2857652), wk =   0.0078125
        k(  193) = (   0.3750000   0.6495204  -0.1905101), wk =   0.0078125
        k(  194) = (   0.3750000   0.6495204  -0.0952550), wk =   0.0078125
        k(  195) = (   0.3750000  -0.3608447  -0.0000003), wk =   0.0078125
        k(  196) = (   0.3750000  -0.3608447   0.0952548), wk =   0.0078125
        k(  197) = (   0.3750000  -0.3608447   0.1905099), wk =   0.0078125
        k(  198) = (   0.3749999  -0.3608447   0.2857651), wk =   0.0078125
        k(  199) = (   0.3750001  -0.3608447  -0.3810207), wk =   0.0078125
        k(  200) = (   0.3750001  -0.3608447  -0.2857656), wk =   0.0078125
        k(  201) = (   0.3750001  -0.3608447  -0.1905105), wk =   0.0078125
        k(  202) = (   0.3750000  -0.3608447  -0.0952554), wk =   0.0078125
        k(  203) = (   0.3750000  -0.2165068  -0.0000002), wk =   0.0078125
        k(  204) = (   0.3750000  -0.2165068   0.0952549), wk =   0.0078125
        k(  205) = (   0.3750000  -0.2165068   0.1905100), wk =   0.0078125
        k(  206) = (   0.3749999  -0.2165068   0.2857651), wk =   0.0078125
        k(  207) = (   0.3750001  -0.2165069  -0.3810207), wk =   0.0078125
        k(  208) = (   0.3750001  -0.2165069  -0.2857656), wk =   0.0078125
        k(  209) = (   0.3750001  -0.2165069  -0.1905105), wk =   0.0078125
        k(  210) = (   0.3750000  -0.2165068  -0.0952553), wk =   0.0078125
        k(  211) = (   0.3750000  -0.0721690  -0.0000002), wk =   0.0078125
        k(  212) = (   0.3750000  -0.0721689   0.0952549), wk =   0.0078125
        k(  213) = (   0.3749999  -0.0721689   0.1905101), wk =   0.0078125
        k(  214) = (   0.3749999  -0.0721689   0.2857652), wk =   0.0078125
        k(  215) = (   0.3750001  -0.0721690  -0.3810206), wk =   0.0078125
        k(  216) = (   0.3750001  -0.0721690  -0.2857655), wk =   0.0078125
        k(  217) = (   0.3750001  -0.0721690  -0.1905104), wk =   0.0078125
        k(  218) = (   0.3750000  -0.0721690  -0.0952553), wk =   0.0078125
        k(  219) = (   0.3750000   0.0721689  -0.0000001), wk =   0.0078125
        k(  220) = (   0.3750000   0.0721689   0.0952550), wk =   0.0078125
        k(  221) = (   0.3749999   0.0721689   0.1905101), wk =   0.0078125
        k(  222) = (   0.3749999   0.0721690   0.2857652), wk =   0.0078125
        k(  223) = (   0.3750001   0.0721689  -0.3810206), wk =   0.0078125
        k(  224) = (   0.3750001   0.0721689  -0.2857655), wk =   0.0078125
        k(  225) = (   0.3750001   0.0721689  -0.1905103), wk =   0.0078125
        k(  226) = (   0.3750000   0.0721689  -0.0952552), wk =   0.0078125
        k(  227) = (  -0.5000000  -0.2886757   0.0000001), wk =   0.0039062
        k(  228) = (  -0.5000000  -0.2886757   0.0952552), wk =   0.0078125
        k(  229) = (  -0.5000000  -0.2886757   0.1905103), wk =   0.0078125
        k(  230) = (  -0.5000001  -0.2886757   0.2857654), wk =   0.0078125
        k(  231) = (  -0.4999999  -0.2886758  -0.3810204), wk =   0.0039062
        k(  232) = (  -0.5000000  -0.1443379   0.0000001), wk =   0.0078125
        k(  233) = (  -0.5000000  -0.1443378   0.0952553), wk =   0.0078125
        k(  234) = (  -0.5000001  -0.1443378   0.1905104), wk =   0.0078125
        k(  235) = (  -0.5000001  -0.1443378   0.2857655), wk =   0.0078125
        k(  236) = (  -0.4999999  -0.1443379  -0.3810203), wk =   0.0078125
        k(  237) = (  -0.4999999  -0.1443379  -0.2857652), wk =   0.0078125
        k(  238) = (  -0.4999999  -0.1443379  -0.1905101), wk =   0.0078125
        k(  239) = (  -0.5000000  -0.1443379  -0.0952550), wk =   0.0078125
        k(  240) = (  -0.5000000   0.0000000   0.0000002), wk =   0.0078125
        k(  241) = (  -0.5000000   0.0000000   0.0952553), wk =   0.0078125
        k(  242) = (  -0.5000001   0.0000000   0.1905104), wk =   0.0078125
        k(  243) = (  -0.5000001   0.0000001   0.2857655), wk =   0.0078125
        k(  244) = (  -0.4999999  -0.0000000  -0.3810203), wk =   0.0078125
        k(  245) = (  -0.4999999  -0.0000000  -0.2857651), wk =   0.0078125
        k(  246) = (  -0.4999999  -0.0000000  -0.1905100), wk =   0.0078125
        k(  247) = (  -0.5000000   0.0000000  -0.0952549), wk =   0.0078125
        k(  248) = (  -0.5000000   0.1443379   0.0000002), wk =   0.0078125
        k(  249) = (  -0.5000000   0.1443379   0.0952554), wk =   0.0078125
        k(  250) = (  -0.5000001   0.1443379   0.1905105), wk =   0.0078125
        k(  251) = (  -0.5000001   0.1443379   0.2857656), wk =   0.0078125
        k(  252) = (  -0.4999999   0.1443379  -0.3810202), wk =   0.0078125
        k(  253) = (  -0.4999999   0.1443379  -0.2857651), wk =   0.0078125
        k(  254) = (  -0.4999999   0.1443379  -0.1905100), wk =   0.0078125
        k(  255) = (  -0.5000000   0.1443379  -0.0952549), wk =   0.0078125
        k(  256) = (  -0.5000000  -0.8660272  -0.0000001), wk =   0.0039062
        k(  257) = (  -0.5000000  -0.8660272   0.0952550), wk =   0.0078125
        k(  258) = (  -0.5000000  -0.8660272   0.1905101), wk =   0.0078125
        k(  259) = (  -0.5000000  -0.8660272   0.2857652), wk =   0.0078125
        k(  260) = (  -0.4999998  -0.8660273  -0.3810206), wk =   0.0039062

                       cryst. coord.
        k(    1) = (   0.0000000   0.0000000   0.0000000), wk =   0.0039062
        k(    2) = (   0.0000000  -0.0000000   0.1250000), wk =   0.0078125
        k(    3) = (   0.0000000  -0.0000000   0.2500000), wk =   0.0078125
        k(    4) = (  -0.0000000  -0.0000000   0.3750000), wk =   0.0078125
        k(    5) = (  -0.0000000   0.0000000  -0.5000000), wk =   0.0039062
        k(    6) = (  -0.0000000   0.1250000   0.0000000), wk =   0.0078125
        k(    7) = (  -0.0000000   0.1250000   0.1250000), wk =   0.0078125
        k(    8) = (  -0.0000000   0.1250000   0.2500000), wk =   0.0078125
        k(    9) = (   0.0000000   0.1250000   0.3750000), wk =   0.0078125
        k(   10) = (   0.0000000   0.1250000  -0.5000000), wk =   0.0078125
        k(   11) = (   0.0000000   0.1250000  -0.3750000), wk =   0.0078125
        k(   12) = (  -0.0000000   0.1250000  -0.2500000), wk =   0.0078125
        k(   13) = (  -0.0000000   0.1250000  -0.1250000), wk =   0.0078125
        k(   14) = (  -0.0000000   0.2500000   0.0000000), wk =   0.0078125
        k(   15) = (   0.0000000   0.2500000   0.1250000), wk =   0.0078125
        k(   16) = (  -0.0000000   0.2500000   0.2500000), wk =   0.0078125
        k(   17) = (  -0.0000000   0.2500000   0.3750000), wk =   0.0078125
        k(   18) = (  -0.0000000   0.2500000  -0.5000000), wk =   0.0078125
        k(   19) = (  -0.0000000   0.2500000  -0.3750000), wk =   0.0078125
        k(   20) = (  -0.0000000   0.2500000  -0.2500000), wk =   0.0078125
        k(   21) = (  -0.0000000   0.2500000  -0.1250000), wk =   0.0078125
        k(   22) = (   0.0000000   0.3750000   0.0000000), wk =   0.0078125
        k(   23) = (   0.0000000   0.3750000   0.1250000), wk =   0.0078125
        k(   24) = (   0.0000000   0.3750000   0.2500000), wk =   0.0078125
        k(   25) = (   0.0000000   0.3750000   0.3750000), wk =   0.0078125
        k(   26) = (   0.0000000   0.3750000  -0.5000000), wk =   0.0078125
        k(   27) = (  -0.0000000   0.3750000  -0.3750000), wk =   0.0078125
        k(   28) = (   0.0000000   0.3750000  -0.2500000), wk =   0.0078125
        k(   29) = (   0.0000000   0.3750000  -0.1250000), wk =   0.0078125
        k(   30) = (   0.0000000  -0.5000000  -0.0000000), wk =   0.0039062
        k(   31) = (  -0.0000000  -0.5000000   0.1250000), wk =   0.0078125
        k(   32) = (   0.0000000  -0.5000000   0.2500000), wk =   0.0078125
        k(   33) = (   0.0000000  -0.5000000   0.3750000), wk =   0.0078125
        k(   34) = (   0.0000000  -0.5000000  -0.5000000), wk =   0.0039062
        k(   35) = (   0.1250000  -0.0000000  -0.0000000), wk =   0.0078125
        k(   36) = (   0.1250000   0.0000000   0.1250000), wk =   0.0078125
        k(   37) = (   0.1250000   0.0000000   0.2500000), wk =   0.0078125
        k(   38) = (   0.1250000  -0.0000000   0.3750000), wk =   0.0078125
        k(   39) = (   0.1250000  -0.0000000  -0.5000000), wk =   0.0078125
        k(   40) = (   0.1250000  -0.0000000  -0.3750000), wk =   0.0078125
        k(   41) = (   0.1250000   0.0000000  -0.2500000), wk =   0.0078125
        k(   42) = (   0.1250000  -0.0000000  -0.1250000), wk =   0.0078125
        k(   43) = (   0.1250000   0.1250000   0.0000000), wk =   0.0078125
        k(   44) = (   0.1250000   0.1250000   0.1250000), wk =   0.0078125
        k(   45) = (   0.1250000   0.1250000   0.2500000), wk =   0.0078125
        k(   46) = (   0.1250000   0.1250000   0.3750000), wk =   0.0078125
        k(   47) = (   0.1250000   0.1250000  -0.5000000), wk =   0.0078125
        k(   48) = (   0.1250000   0.1250000  -0.3750000), wk =   0.0078125
        k(   49) = (   0.1250000   0.1250000  -0.2500000), wk =   0.0078125
        k(   50) = (   0.1250000   0.1250000  -0.1250000), wk =   0.0078125
        k(   51) = (   0.1250000   0.2500000   0.0000000), wk =   0.0078125
        k(   52) = (   0.1250000   0.2500000   0.1250000), wk =   0.0078125
        k(   53) = (   0.1250000   0.2500000   0.2500000), wk =   0.0078125
        k(   54) = (   0.1250000   0.2500000   0.3750000), wk =   0.0078125
        k(   55) = (   0.1250000   0.2500000  -0.5000000), wk =   0.0078125
        k(   56) = (   0.1250000   0.2500000  -0.3750000), wk =   0.0078125
        k(   57) = (   0.1250000   0.2500000  -0.2500000), wk =   0.0078125
        k(   58) = (   0.1250000   0.2500000  -0.1250000), wk =   0.0078125
        k(   59) = (   0.1250000   0.3750000   0.0000000), wk =   0.0078125
        k(   60) = (   0.1250000   0.3750000   0.1250000), wk =   0.0078125
        k(   61) = (   0.1250000   0.3750000   0.2500000), wk =   0.0078125
        k(   62) = (   0.1250000   0.3750000   0.3750000), wk =   0.0078125
        k(   63) = (   0.1250000   0.3750000  -0.5000000), wk =   0.0078125
        k(   64) = (   0.1250000   0.3750000  -0.3750000), wk =   0.0078125
        k(   65) = (   0.1250000   0.3750000  -0.2500000), wk =   0.0078125
        k(   66) = (   0.1250000   0.3750000  -0.1250000), wk =   0.0078125
        k(   67) = (   0.1250000  -0.5000000  -0.0000000), wk =   0.0078125
        k(   68) = (   0.1250000  -0.5000000   0.1250000), wk =   0.0078125
        k(   69) = (   0.1250000  -0.5000000   0.2500000), wk =   0.0078125
        k(   70) = (   0.1250000  -0.5000000   0.3750000), wk =   0.0078125
        k(   71) = (   0.1250000  -0.5000000  -0.5000000), wk =   0.0078125
        k(   72) = (   0.1250000  -0.5000000  -0.3750000), wk =   0.0078125
        k(   73) = (   0.1250000  -0.5000000  -0.2500000), wk =   0.0078125
        k(   74) = (   0.1250000  -0.5000000  -0.1250000), wk =   0.0078125
        k(   75) = (   0.1250000  -0.3750000  -0.0000000), wk =   0.0078125
        k(   76) = (   0.1250000  -0.3750000   0.1250000), wk =   0.0078125
        k(   77) = (   0.1250000  -0.3750000   0.2500000), wk =   0.0078125
        k(   78) = (   0.1250000  -0.3750000   0.3750000), wk =   0.0078125
        k(   79) = (   0.1250000  -0.3750000  -0.5000000), wk =   0.0078125
        k(   80) = (   0.1250000  -0.3750000  -0.3750000), wk =   0.0078125
        k(   81) = (   0.1250000  -0.3750000  -0.2500000), wk =   0.0078125
        k(   82) = (   0.1250000  -0.3750000  -0.1250000), wk =   0.0078125
        k(   83) = (   0.1250000  -0.2500000  -0.0000000), wk =   0.0078125
        k(   84) = (   0.1250000  -0.2500000   0.1250000), wk =   0.0078125
        k(   85) = (   0.1250000  -0.2500000   0.2500000), wk =   0.0078125
        k(   86) = (   0.1250000  -0.2500000   0.3750000), wk =   0.0078125
        k(   87) = (   0.1250000  -0.2500000  -0.5000000), wk =   0.0078125
        k(   88) = (   0.1250000  -0.2500000  -0.3750000), wk =   0.0078125
        k(   89) = (   0.1250000  -0.2500000  -0.2500000), wk =   0.0078125
        k(   90) = (   0.1250000  -0.2500000  -0.1250000), wk =   0.0078125
        k(   91) = (   0.1250000  -0.1250000  -0.0000000), wk =   0.0078125
        k(   92) = (   0.1250000  -0.1250000   0.1250000), wk =   0.0078125
        k(   93) = (   0.1250000  -0.1250000   0.2500000), wk =   0.0078125
        k(   94) = (   0.1250000  -0.1250000   0.3750000), wk =   0.0078125
        k(   95) = (   0.1250000  -0.1250000  -0.5000000), wk =   0.0078125
        k(   96) = (   0.1250000  -0.1250000  -0.3750000), wk =   0.0078125
        k(   97) = (   0.1250000  -0.1250000  -0.2500000), wk =   0.0078125
        k(   98) = (   0.1250000  -0.1250000  -0.1250000), wk =   0.0078125
        k(   99) = (   0.2500000  -0.0000000  -0.0000000), wk =   0.0078125
        k(  100) = (   0.2500000  -0.0000000   0.1250000), wk =   0.0078125
        k(  101) = (   0.2500000   0.0000000   0.2500000), wk =   0.0078125
        k(  102) = (   0.2500000   0.0000000   0.3750000), wk =   0.0078125
        k(  103) = (   0.2500000   0.0000000  -0.5000000), wk =   0.0078125
        k(  104) = (   0.2500000  -0.0000000  -0.3750000), wk =   0.0078125
        k(  105) = (   0.2500000  -0.0000000  -0.2500000), wk =   0.0078125
        k(  106) = (   0.2500000  -0.0000000  -0.1250000), wk =   0.0078125
        k(  107) = (   0.2500000   0.1250000   0.0000000), wk =   0.0078125
        k(  108) = (   0.2500000   0.1250000   0.1250000), wk =   0.0078125
        k(  109) = (   0.2500000   0.1250000   0.2500000), wk =   0.0078125
        k(  110) = (   0.2500000   0.1250000   0.3750000), wk =   0.0078125
        k(  111) = (   0.2500000   0.1250000  -0.5000000), wk =   0.0078125
        k(  112) = (   0.2500000   0.1250000  -0.3750000), wk =   0.0078125
        k(  113) = (   0.2500000   0.1250000  -0.2500000), wk =   0.0078125
        k(  114) = (   0.2500000   0.1250000  -0.1250000), wk =   0.0078125
        k(  115) = (   0.2500000   0.2500000   0.0000000), wk =   0.0078125
        k(  116) = (   0.2500000   0.2500000   0.1250000), wk =   0.0078125
        k(  117) = (   0.2500000   0.2500000   0.2500000), wk =   0.0078125
        k(  118) = (   0.2500000   0.2500000   0.3750000), wk =   0.0078125
        k(  119) = (   0.2500000   0.2500000  -0.5000000), wk =   0.0078125
        k(  120) = (   0.2500000   0.2500000  -0.3750000), wk =   0.0078125
        k(  121) = (   0.2500000   0.2500000  -0.2500000), wk =   0.0078125
        k(  122) = (   0.2500000   0.2500000  -0.1250000), wk =   0.0078125
        k(  123) = (   0.2500000   0.3750000   0.0000000), wk =   0.0078125
        k(  124) = (   0.2500000   0.3750000   0.1250000), wk =   0.0078125
        k(  125) = (   0.2500000   0.3750000   0.2500000), wk =   0.0078125
        k(  126) = (   0.2500000   0.3750000   0.3750000), wk =   0.0078125
        k(  127) = (   0.2500000   0.3750000  -0.5000000), wk =   0.0078125
        k(  128) = (   0.2500000   0.3750000  -0.3750000), wk =   0.0078125
        k(  129) = (   0.2500000   0.3750000  -0.2500000), wk =   0.0078125
        k(  130) = (   0.2500000   0.3750000  -0.1250000), wk =   0.0078125
        k(  131) = (   0.2500000  -0.5000000  -0.0000000), wk =   0.0078125
        k(  132) = (   0.2500000  -0.5000000   0.1250000), wk =   0.0078125
        k(  133) = (   0.2500000  -0.5000000   0.2500000), wk =   0.0078125
        k(  134) = (   0.2500000  -0.5000000   0.3750000), wk =   0.0078125
        k(  135) = (   0.2500000  -0.5000000  -0.5000000), wk =   0.0078125
        k(  136) = (   0.2500000  -0.5000000  -0.3750000), wk =   0.0078125
        k(  137) = (   0.2500000  -0.5000000  -0.2500000), wk =   0.0078125
        k(  138) = (   0.2500000  -0.5000000  -0.1250000), wk =   0.0078125
        k(  139) = (   0.2500000  -0.3750000  -0.0000000), wk =   0.0078125
        k(  140) = (   0.2500000  -0.3750000   0.1250000), wk =   0.0078125
        k(  141) = (   0.2500000  -0.3750000   0.2500000), wk =   0.0078125
        k(  142) = (   0.2500000  -0.3750000   0.3750000), wk =   0.0078125
        k(  143) = (   0.2500000  -0.3750000  -0.5000000), wk =   0.0078125
        k(  144) = (   0.2500000  -0.3750000  -0.3750000), wk =   0.0078125
        k(  145) = (   0.2500000  -0.3750000  -0.2500000), wk =   0.0078125
        k(  146) = (   0.2500000  -0.3750000  -0.1250000), wk =   0.0078125
        k(  147) = (   0.2500000  -0.2500000  -0.0000000), wk =   0.0078125
        k(  148) = (   0.2500000  -0.2500000   0.1250000), wk =   0.0078125
        k(  149) = (   0.2500000  -0.2500000   0.2500000), wk =   0.0078125
        k(  150) = (   0.2500000  -0.2500000   0.3750000), wk =   0.0078125
        k(  151) = (   0.2500000  -0.2500000  -0.5000000), wk =   0.0078125
        k(  152) = (   0.2500000  -0.2500000  -0.3750000), wk =   0.0078125
        k(  153) = (   0.2500000  -0.2500000  -0.2500000), wk =   0.0078125
        k(  154) = (   0.2500000  -0.2500000  -0.1250000), wk =   0.0078125
        k(  155) = (   0.2500000  -0.1250000  -0.0000000), wk =   0.0078125
        k(  156) = (   0.2500000  -0.1250000   0.1250000), wk =   0.0078125
        k(  157) = (   0.2500000  -0.1250000   0.2500000), wk =   0.0078125
        k(  158) = (   0.2500000  -0.1250000   0.3750000), wk =   0.0078125
        k(  159) = (   0.2500000  -0.1250000  -0.5000000), wk =   0.0078125
        k(  160) = (   0.2500000  -0.1250000  -0.3750000), wk =   0.0078125
        k(  161) = (   0.2500000  -0.1250000  -0.2500000), wk =   0.0078125
        k(  162) = (   0.2500000  -0.1250000  -0.1250000), wk =   0.0078125
        k(  163) = (   0.3750000  -0.0000000   0.0000000), wk =   0.0078125
        k(  164) = (   0.3750000   0.0000000   0.1250000), wk =   0.0078125
        k(  165) = (   0.3750000  -0.0000000   0.2500000), wk =   0.0078125
        k(  166) = (   0.3750000  -0.0000000   0.3750000), wk =   0.0078125
        k(  167) = (   0.3750000  -0.0000000  -0.5000000), wk =   0.0078125
        k(  168) = (   0.3750000  -0.0000000  -0.3750000), wk =   0.0078125
        k(  169) = (   0.3750000   0.0000000  -0.2500000), wk =   0.0078125
        k(  170) = (   0.3750000  -0.0000000  -0.1250000), wk =   0.0078125
        k(  171) = (   0.3750000   0.1250000  -0.0000000), wk =   0.0078125
        k(  172) = (   0.3750000   0.1250000   0.1250000), wk =   0.0078125
        k(  173) = (   0.3750000   0.1250000   0.2500000), wk =   0.0078125
        k(  174) = (   0.3750000   0.1250000   0.3750000), wk =   0.0078125
        k(  175) = (   0.3750000   0.1250000  -0.5000000), wk =   0.0078125
        k(  176) = (   0.3750000   0.1250000  -0.3750000), wk =   0.0078125
        k(  177) = (   0.3750000   0.1250000  -0.2500000), wk =   0.0078125
        k(  178) = (   0.3750000   0.1250000  -0.1250000), wk =   0.0078125
        k(  179) = (   0.3750000   0.2500000   0.0000000), wk =   0.0078125
        k(  180) = (   0.3750000   0.2500000   0.1250000), wk =   0.0078125
        k(  181) = (   0.3750000   0.2500000   0.2500000), wk =   0.0078125
        k(  182) = (   0.3750000   0.2500000   0.3750000), wk =   0.0078125
        k(  183) = (   0.3750000   0.2500000  -0.5000000), wk =   0.0078125
        k(  184) = (   0.3750000   0.2500000  -0.3750000), wk =   0.0078125
        k(  185) = (   0.3750000   0.2500000  -0.2500000), wk =   0.0078125
        k(  186) = (   0.3750000   0.2500000  -0.1250000), wk =   0.0078125
        k(  187) = (   0.3750000   0.3750000   0.0000000), wk =   0.0078125
        k(  188) = (   0.3750000   0.3750000   0.1250000), wk =   0.0078125
        k(  189) = (   0.3750000   0.3750000   0.2500000), wk =   0.0078125
        k(  190) = (   0.3750000   0.3750000   0.3750000), wk =   0.0078125
        k(  191) = (   0.3750000   0.3750000  -0.5000000), wk =   0.0078125
        k(  192) = (   0.3750000   0.3750000  -0.3750000), wk =   0.0078125
        k(  193) = (   0.3750000   0.3750000  -0.2500000), wk =   0.0078125
        k(  194) = (   0.3750000   0.3750000  -0.1250000), wk =   0.0078125
        k(  195) = (   0.3750000  -0.5000000  -0.0000000), wk =   0.0078125
        k(  196) = (   0.3750000  -0.5000000   0.1250000), wk =   0.0078125
        k(  197) = (   0.3750000  -0.5000000   0.2500000), wk =   0.0078125
        k(  198) = (   0.3750000  -0.5000000   0.3750000), wk =   0.0078125
        k(  199) = (   0.3750000  -0.5000000  -0.5000000), wk =   0.0078125
        k(  200) = (   0.3750000  -0.5000000  -0.3750000), wk =   0.0078125
        k(  201) = (   0.3750000  -0.5000000  -0.2500000), wk =   0.0078125
        k(  202) = (   0.3750000  -0.5000000  -0.1250000), wk =   0.0078125
        k(  203) = (   0.3750000  -0.3750000  -0.0000000), wk =   0.0078125
        k(  204) = (   0.3750000  -0.3750000   0.1250000), wk =   0.0078125
        k(  205) = (   0.3750000  -0.3750000   0.2500000), wk =   0.0078125
        k(  206) = (   0.3750000  -0.3750000   0.3750000), wk =   0.0078125
        k(  207) = (   0.3750000  -0.3750000  -0.5000000), wk =   0.0078125
        k(  208) = (   0.3750000  -0.3750000  -0.3750000), wk =   0.0078125
        k(  209) = (   0.3750000  -0.3750000  -0.2500000), wk =   0.0078125
        k(  210) = (   0.3750000  -0.3750000  -0.1250000), wk =   0.0078125
        k(  211) = (   0.3750000  -0.2500000  -0.0000000), wk =   0.0078125
        k(  212) = (   0.3750000  -0.2500000   0.1250000), wk =   0.0078125
        k(  213) = (   0.3750000  -0.2500000   0.2500000), wk =   0.0078125
        k(  214) = (   0.3750000  -0.2500000   0.3750000), wk =   0.0078125
        k(  215) = (   0.3750000  -0.2500000  -0.5000000), wk =   0.0078125
        k(  216) = (   0.3750000  -0.2500000  -0.3750000), wk =   0.0078125
        k(  217) = (   0.3750000  -0.2500000  -0.2500000), wk =   0.0078125
        k(  218) = (   0.3750000  -0.2500000  -0.1250000), wk =   0.0078125
        k(  219) = (   0.3750000  -0.1250000  -0.0000000), wk =   0.0078125
        k(  220) = (   0.3750000  -0.1250000   0.1250000), wk =   0.0078125
        k(  221) = (   0.3750000  -0.1250000   0.2500000), wk =   0.0078125
        k(  222) = (   0.3750000  -0.1250000   0.3750000), wk =   0.0078125
        k(  223) = (   0.3750000  -0.1250000  -0.5000000), wk =   0.0078125
        k(  224) = (   0.3750000  -0.1250000  -0.3750000), wk =   0.0078125
        k(  225) = (   0.3750000  -0.1250000  -0.2500000), wk =   0.0078125
        k(  226) = (   0.3750000  -0.1250000  -0.1250000), wk =   0.0078125
        k(  227) = (  -0.5000000   0.0000000   0.0000000), wk =   0.0039062
        k(  228) = (  -0.5000000   0.0000000   0.1250000), wk =   0.0078125
        k(  229) = (  -0.5000000   0.0000000   0.2500000), wk =   0.0078125
        k(  230) = (  -0.5000000   0.0000000   0.3750000), wk =   0.0078125
        k(  231) = (  -0.5000000  -0.0000000  -0.5000000), wk =   0.0039062
        k(  232) = (  -0.5000000   0.1250000   0.0000000), wk =   0.0078125
        k(  233) = (  -0.5000000   0.1250000   0.1250000), wk =   0.0078125
        k(  234) = (  -0.5000000   0.1250000   0.2500000), wk =   0.0078125
        k(  235) = (  -0.5000000   0.1250000   0.3750000), wk =   0.0078125
        k(  236) = (  -0.5000000   0.1250000  -0.5000000), wk =   0.0078125
        k(  237) = (  -0.5000000   0.1250000  -0.3750000), wk =   0.0078125
        k(  238) = (  -0.5000000   0.1250000  -0.2500000), wk =   0.0078125
        k(  239) = (  -0.5000000   0.1250000  -0.1250000), wk =   0.0078125
        k(  240) = (  -0.5000000   0.2500000   0.0000000), wk =   0.0078125
        k(  241) = (  -0.5000000   0.2500000   0.1250000), wk =   0.0078125
        k(  242) = (  -0.5000000   0.2500000   0.2500000), wk =   0.0078125
        k(  243) = (  -0.5000000   0.2500000   0.3750000), wk =   0.0078125
        k(  244) = (  -0.5000000   0.2500000  -0.5000000), wk =   0.0078125
        k(  245) = (  -0.5000000   0.2500000  -0.3750000), wk =   0.0078125
        k(  246) = (  -0.5000000   0.2500000  -0.2500000), wk =   0.0078125
        k(  247) = (  -0.5000000   0.2500000  -0.1250000), wk =   0.0078125
        k(  248) = (  -0.5000000   0.3750000   0.0000000), wk =   0.0078125
        k(  249) = (  -0.5000000   0.3750000   0.1250000), wk =   0.0078125
        k(  250) = (  -0.5000000   0.3750000   0.2500000), wk =   0.0078125
        k(  251) = (  -0.5000000   0.3750000   0.3750000), wk =   0.0078125
        k(  252) = (  -0.5000000   0.3750000  -0.5000000), wk =   0.0078125
        k(  253) = (  -0.5000000   0.3750000  -0.3750000), wk =   0.0078125
        k(  254) = (  -0.5000000   0.3750000  -0.2500000), wk =   0.0078125
        k(  255) = (  -0.5000000   0.3750000  -0.1250000), wk =   0.0078125
        k(  256) = (  -0.5000000  -0.5000000  -0.0000000), wk =   0.0039062
        k(  257) = (  -0.5000000  -0.5000000   0.1250000), wk =   0.0078125
        k(  258) = (  -0.5000000  -0.5000000   0.2500000), wk =   0.0078125
        k(  259) = (  -0.5000000  -0.5000000   0.3750000), wk =   0.0078125
        k(  260) = (  -0.5000000  -0.5000000  -0.5000000), wk =   0.0039062

     Dense  grid:    76273 G-vectors     FFT dimensions: (  54,  54,  72)

     Smooth grid:    29653 G-vectors     FFT dimensions: (  40,  40,  50)

     Dynamical RAM for                 wfc:       0.07 MB

     Dynamical RAM for     wfc (w. buffer):       4.89 MB

     Dynamical RAM for           str. fact:       0.22 MB

     Dynamical RAM for           local pot:       0.00 MB

     Dynamical RAM for          nlocal pot:       0.22 MB

     Dynamical RAM for                qrad:       8.08 MB

     Dynamical RAM for          rho,v,vnew:       0.55 MB

     Dynamical RAM for               rhoin:       0.18 MB

     Dynamical RAM for            rho*nmix:       1.16 MB

     Dynamical RAM for           G-vectors:       0.29 MB

     Dynamical RAM for          h,s,v(r/c):       0.08 MB

     Dynamical RAM for          <psi|beta>:       0.02 MB

     Dynamical RAM for                 psi:       0.30 MB

     Dynamical RAM for                hpsi:       0.30 MB

     Dynamical RAM for                spsi:       0.30 MB

     Dynamical RAM for      wfcinit/wfcrot:       0.20 MB

     Dynamical RAM for           addusdens:       3.82 MB

     Dynamical RAM for          addusforce:       3.96 MB

     Dynamical RAM for         addusstress:       4.03 MB

     Estimated static dynamical RAM per process >      16.44 MB

     Estimated max dynamical RAM per process >      20.47 MB

     Estimated total dynamical RAM >       1.28 GB

     Check: negative core charge=   -0.000003

     Initial potential from superposition of free atoms

     starting charge   41.69964, renormalised to   42.00000
     Starting wfcs are   26 randomized atomic wfcs

     total cpu time spent up to now is        1.8 secs

     Self-consistent Calculation

     iteration #  1     ecut=    80.00 Ry     beta= 0.50
     Davidson diagonalization with overlap
     ethr =  1.00E-02,  avg # of iterations =  2.0

     total cpu time spent up to now is        2.6 secs

     total energy              =    -650.63937847 Ry
     Harris-Foulkes estimate   =    -651.44568463 Ry
     estimated scf accuracy    <       1.20841119 Ry

     iteration #  2     ecut=    80.00 Ry     beta= 0.50
     Davidson diagonalization with overlap
     ethr =  2.88E-03,  avg # of iterations =  3.0

     total cpu time spent up to now is        3.7 secs

     total energy              =    -651.01963866 Ry
     Harris-Foulkes estimate   =    -651.29152414 Ry
     estimated scf accuracy    <       0.62347679 Ry

     iteration #  3     ecut=    80.00 Ry     beta= 0.50
     Davidson diagonalization with overlap
     ethr =  1.48E-03,  avg # of iterations =  2.0

     total cpu time spent up to now is        4.7 secs

     total energy              =    -651.12506362 Ry
     Harris-Foulkes estimate   =    -651.12848242 Ry
     estimated scf accuracy    <       0.00994117 Ry

     iteration #  4     ecut=    80.00 Ry     beta= 0.50
     Davidson diagonalization with overlap
     ethr =  2.37E-05,  avg # of iterations =  3.0

     total cpu time spent up to now is        5.7 secs

     total energy              =    -651.12575892 Ry
     Harris-Foulkes estimate   =    -651.12701342 Ry
     estimated scf accuracy    <       0.00318167 Ry

     iteration #  5     ecut=    80.00 Ry     beta= 0.50
     Davidson diagonalization with overlap
     ethr =  7.58E-06,  avg # of iterations =  2.8

     total cpu time spent up to now is        6.7 secs

     total energy              =    -651.12636409 Ry
     Harris-Foulkes estimate   =    -651.12639910 Ry
     estimated scf accuracy    <       0.00016593 Ry

     iteration #  6     ecut=    80.00 Ry     beta= 0.50
     Davidson diagonalization with overlap
     ethr =  3.95E-07,  avg # of iterations =  2.5

     total cpu time spent up to now is        7.7 secs

     total energy              =    -651.12638922 Ry
     Harris-Foulkes estimate   =    -651.12638555 Ry
     estimated scf accuracy    <       0.00001032 Ry

     iteration #  7     ecut=    80.00 Ry     beta= 0.50
     Davidson diagonalization with overlap
     ethr =  2.46E-08,  avg # of iterations =  2.0

     total cpu time spent up to now is        8.5 secs

     End of self-consistent calculation

          k = 0.0000 0.0000 0.0000 (  3679 PWs)   bands (ev):

  -115.4242 -69.7879 -69.7808 -69.7808 -64.8415 -31.8410 -31.8067 -31.8067
   -10.0514  -8.7233   1.9273   1.9273   2.9611   3.1821   3.1821   3.3834
     5.7846   5.7846   7.0378   7.3013   7.3013

     occupation numbers 
     1.0000   1.0000   1.0000   1.0000   1.0000   1.0000   1.0000   1.0000
     1.0000   1.0000   1.0000   1.0000   1.0000   1.0000   1.0000   1.0000
     1.0000   1.0000   1.0000   1.0000   1.0000

          k =-0.0000 0.0000 0.0953 (  3672 PWs)   bands (ev):

  -115.4242 -69.7879 -69.7808 -69.7808 -64.8415 -31.8411 -31.8067 -31.8067
   -10.0116  -8.7631   1.9277   1.9277   2.7263   3.1654   3.1654   3.6313
     5.8265   5.8265   6.7558   7.2844   7.2844

     occupation numbers 
     1.0000   1.0000   1.0000   1.0000   1.0000   1.0000   1.0000   1.0000
     1.0000   1.0000   1.0000   1.0000   1.0000   1.0000   1.0000   1.0000
     1.0000   1.0000   1.0000   1.0000   1.0000

          k =-0.0000 0.0000 0.1905 (  3726 PWs)   bands (ev):

  -115.4242 -69.7879 -69.7808 -69.7808 -64.8415 -31.8415 -31.8067 -31.8067
    -9.9025  -8.8725   1.9286   1.9286   2.4315   3.1265   3.1265   3.9605
     5.9304   5.9304   6.2667   7.2394   7.2394

     occupation numbers 
     1.0000   1.0000   1.0000   1.0000   1.0000   1.0000   1.0000   1.0000
     1.0000   1.0000   1.0000   1.0000   1.0000   1.0000   1.0000   1.0000
     1.0000   1.0000   1.0000   1.0000   1.0000

          k =-0.0000 0.0000 0.2858 (  3744 PWs)   bands (ev):

  -115.4242 -69.7880 -69.7808 -69.7808 -64.8415 -31.8418 -31.8066 -31.8066
    -9.7616  -9.0140   1.9296   1.9296   2.2380   3.0894   3.0894   4.1945
     5.8912   6.0402   6.0402   7.1869   7.1869

     occupation numbers 
     1.0000   1.0000   1.0000   1.0000   1.0000   1.0000   1.0000   1.0000
     1.0000   1.0000   1.0000   1.0000   1.0000   1.0000   1.0000   1.0000
     1.0000   1.0000   1.0000   1.0000   1.0000

          k = 0.0000-0.0000-0.3810 (  3696 PWs)   bands (ev):

  -115.4242 -69.7879 -69.7808 -69.7808 -64.8415 -31.8420 -31.8066 -31.8066
    -9.6837  -9.0922   1.9300   1.9300   2.1721   3.0745   3.0745   4.2800
     5.7522   6.0883   6.0883   7.1621   7.1621

     occupation numbers 
     1.0000   1.0000   1.0000   1.0000   1.0000   1.0000   1.0000   1.0000
     1.0000   1.0000   1.0000   1.0000   1.0000   1.0000   1.0000   1.0000
     1.0000   1.0000   1.0000   1.0000   1.0000

          k =-0.0000 0.1443 0.0000 (  3700 PWs)   bands (ev):

  -115.4242 -69.7879 -69.7810 -69.7808 -64.8414 -31.8407 -31.8098 -31.8074
    -9.9701  -8.7134   1.8998   2.0091   2.8072   3.1758   3.3933   3.4528
     5.4650   5.7034   6.6453   6.9557   7.1484

     occupation numbers 
     1.0000   1.0000   1.0000   1.0000   1.0000   1.0000   1.0000   1.0000
     1.0000   1.0000   1.0000   1.0000   1.0000   1.0000   1.0000   1.0000
     1.0000   1.0000   1.0000   1.0000   1.0000

          k =-0.0000 0.1443 0.0953 (  3691 PWs)   bands (ev):

  -115.4242 -69.7879 -69.7810 -69.7808 -64.8414 -31.8409 -31.8098 -31.8074
    -9.9325  -8.7490   1.8980   2.0103   2.6823   3.1522   3.1581   3.7889
     5.5272   5.7461   6.3633   7.1104   7.1294

     occupation numbers 
     1.0000   1.0000   1.0000   1.0000   1.0000   1.0000   1.0000   1.0000
     1.0000   1.0000   1.0000   1.0000   1.0000   1.0000   1.0000   1.0000
     1.0000   1.0000   1.0000   1.0000   1.0000

          k =-0.0000 0.1443 0.1905 (  3700 PWs)   bands (ev):

  -115.4242 -69.7879 -69.7809 -69.7808 -64.8414 -31.8412 -31.8097 -31.8073
    -9.8299  -8.8471   1.8921   2.0120   2.4363   3.0026   3.1179   4.1207
     5.6412   5.8607   6.0025   7.0689   7.2151

     occupation numbers 
     1.0000   1.0000   1.0000   1.0000   1.0000   1.0000   1.0000   1.0000
     1.0000   1.0000   1.0000   1.0000   1.0000   1.0000   1.0000   1.0000
     1.0000   1.0000   1.0000   1.0000   1.0000

          k =-0.0000 0.1443 0.2858 (  3711 PWs)   bands (ev):

  -115.4242 -69.7879 -69.7809 -69.7808 -64.8414 -31.8416 -31.8097 -31.8073
    -9.6991  -8.9736   1.8808   2.0133   2.2575   2.9053   3.0800   4.3494
     5.5324   5.9808   5.9899   6.9912   7.2152

     occupation numbers 
     1.0000   1.0000   1.0000   1.0000   1.0000   1.0000   1.0000   1.0000
     1.0000   1.0000   1.0000   1.0000   1.0000   1.0000   1.0000   1.0000
     1.0000   1.0000   1.0000   1.0000   1.0000

          k = 0.0000 0.1443-0.3810 (  3698 PWs)   bands (ev):

  -115.4242 -69.7879 -69.7809 -69.7808 -64.8414 -31.8417 -31.8097 -31.8073
    -9.6283  -9.0428   1.8722   2.0133   2.2000   2.8677   3.0652   4.4420
     5.4091   6.0535   6.0566   6.9478   7.2020

     occupation numbers 
     1.0000   1.0000   1.0000   1.0000   1.0000   1.0000   1.0000   1.0000
     1.0000   1.0000   1.0000   1.0000   1.0000   1.0000   1.0000   1.0000
     1.0000   1.0000   1.0000   1.0000   1.0000

          k = 0.0000 0.1443-0.2858 (  3711 PWs)   bands (ev):

  -115.4242 -69.7879 -69.7809 -69.7808 -64.8414 -31.8416 -31.8097 -31.8073
    -9.6991  -8.9736   1.8792   2.0120   2.2603   2.9037   3.0811   4.3662
     5.4706   5.9996   6.0162   6.9799   7.2292

     occupation numbers 
     1.0000   1.0000   1.0000   1.0000   1.0000   1.0000   1.0000   1.0000
     1.0000   1.0000   1.0000   1.0000   1.0000   1.0000   1.0000   1.0000
     1.0000   1.0000   1.0000   1.0000   1.0000

          k = 0.0000 0.1443-0.1905 (  3700 PWs)   bands (ev):

  -115.4242 -69.7879 -69.7809 -69.7808 -64.8414 -31.8412 -31.8097 -31.8073
    -9.8299  -8.8471   1.8916   2.0103   2.4376   3.0003   3.1194   4.1376
     5.5696   5.8719   6.0402   7.0554   7.2397

     occupation numbers 
     1.0000   1.0000   1.0000   1.0000   1.0000   1.0000   1.0000   1.0000
     1.0000   1.0000   1.0000   1.0000   1.0000   1.0000   1.0000   1.0000
     1.0000   1.0000   1.0000   1.0000   1.0000

          k = 0.0000 0.1443-0.0953 (  3691 PWs)   bands (ev):

  -115.4242 -69.7879 -69.7810 -69.7808 -64.8414 -31.8409 -31.8098 -31.8074
    -9.9325  -8.7490   1.8984   2.0091   2.6815   3.1491   3.1591   3.7999
     5.5059   5.7530   6.3530   7.1210   7.1394

     occupation numbers 
     1.0000   1.0000   1.0000   1.0000   1.0000   1.0000   1.0000   1.0000
     1.0000   1.0000   1.0000   1.0000   1.0000   1.0000   1.0000   1.0000
     1.0000   1.0000   1.0000   1.0000   1.0000

          k =-0.0000 0.2887 0.0000 (  3704 PWs)   bands (ev):

  -115.4242 -69.7879 -69.7814 -69.7809 -64.8410 -31.8401 -31.8172 -31.8090
    -9.7581  -8.7016   1.8741   2.2314   2.6664   3.1615   3.4004   3.9086
     4.7816   5.4671   5.6969   6.7132   6.8139

     occupation numbers 
     1.0000   1.0000   1.0000   1.0000   1.0000   1.0000   1.0000   1.0000
     1.0000   1.0000   1.0000   1.0000   1.0000   1.0000   1.0000   1.0000
     1.0000   1.0000   1.0000   1.0000   1.0000

          k =-0.0000 0.2887 0.0953 (  3702 PWs)   bands (ev):

  -115.4242 -69.7879 -69.7814 -69.7809 -64.8410 -31.8402 -31.8172 -31.8090
    -9.7270  -8.7257   1.8688   2.2336   2.5906   3.1422   3.1656   4.0440
     4.9424   5.5174   5.6025   6.7831   6.8435

     occupation numbers 
     1.0000   1.0000   1.0000   1.0000   1.0000   1.0000   1.0000   1.0000
     1.0000   1.0000   1.0000   1.0000   1.0000   1.0000   1.0000   1.0000
     1.0000   1.0000   1.0000   1.0000   1.0000

          k =-0.0000 0.2887 0.1905 (  3717 PWs)   bands (ev):

  -115.4242 -69.7879 -69.7814 -69.7810 -64.8410 -31.8406 -31.8172 -31.8090
    -9.6438  -8.7921   1.8547   2.2365   2.4129   2.8342   3.0994   4.2288
     5.1132   5.5472   5.6606   6.6832   7.0995

     occupation numbers 
     1.0000   1.0000   1.0000   1.0000   1.0000   1.0000   1.0000   1.0000
     1.0000   1.0000   1.0000   1.0000   1.0000   1.0000   1.0000   1.0000
     1.0000   1.0000   1.0000   1.0000   1.0000

          k =-0.0000 0.2887 0.2858 (  3701 PWs)   bands (ev):

  -115.4242 -69.7879 -69.7813 -69.7809 -64.8410 -31.8409 -31.8172 -31.8090
    -9.5427  -8.8766   1.8282   2.2385   2.2655   2.6079   3.0598   4.3753
     4.9586   5.8206   5.8446   6.5392   7.2491

     occupation numbers 
     1.0000   1.0000   1.0000   1.0000   1.0000   1.0000   1.0000   1.0000
     1.0000   1.0000   1.0000   1.0000   1.0000   1.0000   1.0000   1.0000
     1.0000   1.0000   1.0000   1.0000   1.0000

          k = 0.0000 0.2887-0.3810 (  3702 PWs)   bands (ev):

  -115.4242 -69.7879 -69.7813 -69.7809 -64.8410 -31.8410 -31.8172 -31.8090
    -9.4915  -8.9209   1.8062   2.2277   2.2382   2.5209   3.0450   4.5006
     4.7892   5.9596   5.9687   6.4393   7.2963

     occupation numbers 
     1.0000   1.0000   1.0000   1.0000   1.0000   1.0000   1.0000   1.0000
     1.0000   1.0000   1.0000   1.0000   1.0000   1.0000   1.0000   1.0000
     1.0000   1.0000   1.0000   1.0000   1.0000

          k = 0.0000 0.2887-0.2858 (  3701 PWs)   bands (ev):

  -115.4242 -69.7879 -69.7813 -69.7809 -64.8410 -31.8409 -31.8172 -31.8090
    -9.5428  -8.8765   1.8203   2.2358   2.2801   2.6002   3.0623   4.5002
     4.7818   5.8440   5.8649   6.5168   7.2905

     occupation numbers 
     1.0000   1.0000   1.0000   1.0000   1.0000   1.0000   1.0000   1.0000
     1.0000   1.0000   1.0000   1.0000   1.0000   1.0000   1.0000   1.0000
     1.0000   1.0000   1.0000   1.0000   1.0000

          k = 0.0000 0.2887-0.1905 (  3717 PWs)   bands (ev):

  -115.4242 -69.7879 -69.7814 -69.7810 -64.8410 -31.8406 -31.8172 -31.8090
    -9.6439  -8.7920   1.8526   2.2329   2.4132   2.8296   3.1028   4.3494
     4.9073   5.5873   5.6795   6.6612   7.1672

     occupation numbers 
     1.0000   1.0000   1.0000   1.0000   1.0000   1.0000   1.0000   1.0000
     1.0000   1.0000   1.0000   1.0000   1.0000   1.0000   1.0000   1.0000
     1.0000   1.0000   1.0000   1.0000   1.0000

          k = 0.0000 0.2887-0.0953 (  3702 PWs)   bands (ev):

  -115.4242 -69.7879 -69.7814 -69.7809 -64.8410 -31.8402 -31.8172 -31.8090
    -9.7270  -8.7256   1.8708   2.2311   2.5838   3.1445   3.1527   4.1313
     4.8574   5.5280   5.5617   6.7704   6.9103

     occupation numbers 
     1.0000   1.0000   1.0000   1.0000   1.0000   1.0000   1.0000   1.0000
     1.0000   1.0000   1.0000   1.0000   1.0000   1.0000   1.0000   1.0000
     1.0000   1.0000   1.0000   1.0000   1.0000

          k =-0.0000 0.4330 0.0000 (  3714 PWs)   bands (ev):

  -115.4242 -69.7878 -69.7818 -69.7811 -64.8407 -31.8394 -31.8247 -31.8107
    -9.5104  -8.7198   1.9290   2.5052   2.5888   3.1516   3.3315   4.1536
     4.4644   4.9667   5.1444   6.3684   6.5340

     occupation numbers 
     1.0000   1.0000   1.0000   1.0000   1.0000   1.0000   1.0000   1.0000
     1.0000   1.0000   1.0000   1.0000   1.0000   1.0000   1.0000   1.0000
     1.0000   1.0000   1.0000   1.0000   1.0000

          k =-0.0000 0.4330 0.0953 (  3720 PWs)   bands (ev):

  -115.4242 -69.7878 -69.7818 -69.7811 -64.8407 -31.8396 -31.8246 -31.8107
    -9.4896  -8.7283   1.9174   2.5073   2.5173   3.1315   3.1960   3.8749
     4.6227   5.2010   5.2189   6.4930   6.5192

     occupation numbers 
     1.0000   1.0000   1.0000   1.0000   1.0000   1.0000   1.0000   1.0000
     1.0000   1.0000   1.0000   1.0000   1.0000   1.0000   1.0000   1.0000
     1.0000   1.0000   1.0000   1.0000   1.0000

          k =-0.0000 0.4330 0.1905 (  3704 PWs)   bands (ev):

  -115.4242 -69.7878 -69.7817 -69.7811 -64.8407 -31.8399 -31.8246 -31.8107
    -9.4364  -8.7517   1.8957   2.3501   2.5091   2.8041   3.0881   3.7870
     4.6871   5.3606   5.5801   6.3677   6.9175

     occupation numbers 
     1.0000   1.0000   1.0000   1.0000   1.0000   1.0000   1.0000   1.0000
     1.0000   1.0000   1.0000   1.0000   1.0000   1.0000   1.0000   1.0000
     1.0000   1.0000   1.0000   1.0000   1.0000

          k =-0.0000 0.4330 0.2858 (  3709 PWs)   bands (ev):

  -115.4242 -69.7878 -69.7817 -69.7811 -64.8407 -31.8402 -31.8246 -31.8107
    -9.3772  -8.7809   1.8680   2.1924   2.4951   2.5098   3.0486   3.7882
     4.6721   5.5776   5.8976   6.1817   7.2505

     occupation numbers 
     1.0000   1.0000   1.0000   1.0000   1.0000   1.0000   1.0000   1.0000
     1.0000   1.0000   1.0000   1.0000   1.0000   1.0000   1.0000   1.0000
     1.0000   1.0000   1.0000   1.0000   1.0000

          k = 0.0000 0.4330-0.3810 (  3722 PWs)   bands (ev):

  -115.4242 -69.7879 -69.7818 -69.7811 -64.8407 -31.8403 -31.8246 -31.8107
    -9.3504  -8.7954   1.8475   2.1357   2.3883   2.5086   3.0344   3.8009
     4.6486   5.7395   6.0201   6.0313   7.3804

     occupation numbers 
     1.0000   1.0000   1.0000   1.0000   1.0000   1.0000   1.0000   1.0000
     1.0000   1.0000   1.0000   1.0000   1.0000   1.0000   1.0000   1.0000
     1.0000   1.0000   1.0000   1.0000   1.0000

          k = 0.0000 0.4330-0.2858 (  3709 PWs)   bands (ev):

  -115.4242 -69.7878 -69.7817 -69.7811 -64.8407 -31.8402 -31.8246 -31.8107
    -9.3774  -8.7808   1.8635   2.2018   2.4865   2.5063   3.0519   3.8163
     4.6410   5.5943   5.8697   6.1637   7.2975

     occupation numbers 
     1.0000   1.0000   1.0000   1.0000   1.0000   1.0000   1.0000   1.0000
     1.0000   1.0000   1.0000   1.0000   1.0000   1.0000   1.0000   1.0000
     1.0000   1.0000   1.0000   1.0000   1.0000

          k = 0.0000 0.4330-0.1905 (  3704 PWs)   bands (ev):

  -115.4242 -69.7878 -69.7817 -69.7811 -64.8407 -31.8399 -31.8246 -31.8107
    -9.4365  -8.7515   1.9060   2.3297   2.5045   2.7977   3.0925   3.8482
     4.6568   5.3743   5.5022   6.3521   6.9961

     occupation numbers 
     1.0000   1.0000   1.0000   1.0000   1.0000   1.0000   1.0000   1.0000
     1.0000   1.0000   1.0000   1.0000   1.0000   1.0000   1.0000   1.0000
     1.0000   1.0000   1.0000   1.0000   1.0000

          k = 0.0000 0.4330-0.0953 (  3720 PWs)   bands (ev):

  -115.4242 -69.7878 -69.7818 -69.7811 -64.8407 -31.8396 -31.8246 -31.8107
    -9.4897  -8.7282   1.9283   2.4974   2.5041   3.1345   3.1658   3.9640
     4.6748   5.0492   5.2084   6.4843   6.5962

     occupation numbers 
     1.0000   1.0000   1.0000   1.0000   1.0000   1.0000   1.0000   1.0000
     1.0000   1.0000   1.0000   1.0000   1.0000   1.0000   1.0000   1.0000
     1.0000   1.0000   1.0000   1.0000   1.0000

          k = 0.0000-0.5774-0.0000 (  3706 PWs)   bands (ev):

  -115.4242 -69.7878 -69.7819 -69.7811 -64.8405 -31.8392 -31.8277 -31.8114
    -9.3879  -8.7454   1.9934   2.5648   2.6420   3.1519   3.2282   4.0117
     4.6383   4.7469   4.9723   6.1573   6.4348

     occupation numbers 
     1.0000   1.0000   1.0000   1.0000   1.0000   1.0000   1.0000   1.0000
     1.0000   1.0000   1.0000   1.0000   1.0000   1.0000   1.0000   1.0000
     1.0000   1.0000   1.0000   1.0000   1.0000

          k =-0.0000-0.5774 0.0953 (  3700 PWs)   bands (ev):

  -115.4242 -69.7878 -69.7819 -69.7811 -64.8405 -31.8393 -31.8277 -31.8114
    -9.3744  -8.7444   1.9817   2.4870   2.6413   3.1338   3.1794   3.6735
     4.5056   5.0327   5.2342   6.3611   6.3884

     occupation numbers 
     1.0000   1.0000   1.0000   1.0000   1.0000   1.0000   1.0000   1.0000
     1.0000   1.0000   1.0000   1.0000   1.0000   1.0000   1.0000   1.0000
     1.0000   1.0000   1.0000   1.0000   1.0000

          k =-0.0000-0.5774 0.1905 (  3708 PWs)   bands (ev):

  -115.4242 -69.7878 -69.7819 -69.7811 -64.8405 -31.8396 -31.8277 -31.8114
    -9.3407  -8.7426   1.9423   2.3379   2.6394   2.8479   3.0929   3.4284
     4.5468   5.1940   5.6656   6.2584   6.8465

     occupation numbers 
     1.0000   1.0000   1.0000   1.0000   1.0000   1.0000   1.0000   1.0000
     1.0000   1.0000   1.0000   1.0000   1.0000   1.0000   1.0000   1.0000
     1.0000   1.0000   1.0000   1.0000   1.0000

          k =-0.0000-0.5774 0.2858 (  3714 PWs)   bands (ev):

  -115.4242 -69.7878 -69.7819 -69.7811 -64.8405 -31.8399 -31.8277 -31.8114
    -9.3056  -8.7420   1.8911   2.2062   2.4953   2.6374   3.0554   3.3974
     4.5830   5.4034   5.9588   6.0772   7.2646

     occupation numbers 
     1.0000   1.0000   1.0000   1.0000   1.0000   1.0000   1.0000   1.0000
     1.0000   1.0000   1.0000   1.0000   1.0000   1.0000   1.0000   1.0000
     1.0000   1.0000   1.0000   1.0000   1.0000

          k = 0.0000-0.5774-0.3810 (  3720 PWs)   bands (ev):

  -115.4242 -69.7878 -69.7819 -69.7811 -64.8405 -31.8400 -31.8277 -31.8114
    -9.2905  -8.7422   1.8730   2.1271   2.3919   2.6365   3.0407   3.3935
     4.5938   5.5338   5.9576   6.0729   7.4131

     occupation numbers 
     1.0000   1.0000   1.0000   1.0000   1.0000   1.0000   1.0000   1.0000
     1.0000   1.0000   1.0000   1.0000   1.0000   1.0000   1.0000   1.0000
     1.0000   1.0000   1.0000   1.0000   1.0000

          k = 0.1250 0.0722-0.0000 (  3700 PWs)   bands (ev):

  -115.4242 -69.7879 -69.7810 -69.7808 -64.8414 -31.8407 -31.8098 -31.8074
    -9.9701  -8.7134   1.8998   2.0091   2.8072   3.1758   3.3933   3.4528
     5.4650   5.7034   6.6453   6.9557   7.1485

     occupation numbers 
     1.0000   1.0000   1.0000   1.0000   1.0000   1.0000   1.0000   1.0000
     1.0000   1.0000   1.0000   1.0000   1.0000   1.0000   1.0000   1.0000
     1.0000   1.0000   1.0000   1.0000   1.0000

          k = 0.1250 0.0722 0.0953 (  3691 PWs)   bands (ev):

  -115.4242 -69.7879 -69.7810 -69.7808 -64.8414 -31.8409 -31.8098 -31.8074
    -9.9325  -8.7490   1.8984   2.0091   2.6815   3.1491   3.1591   3.7999
     5.5059   5.7530   6.3530   7.1210   7.1394

     occupation numbers 
     1.0000   1.0000   1.0000   1.0000   1.0000   1.0000   1.0000   1.0000
     1.0000   1.0000   1.0000   1.0000   1.0000   1.0000   1.0000   1.0000
     1.0000   1.0000   1.0000   1.0000   1.0000

          k = 0.1250 0.0722 0.1905 (  3700 PWs)   bands (ev):

  -115.4242 -69.7879 -69.7809 -69.7808 -64.8414 -31.8412 -31.8097 -31.8073
    -9.8299  -8.8471   1.8916   2.0103   2.4376   3.0003   3.1194   4.1376
     5.5696   5.8719   6.0402   7.0554   7.2397

     occupation numbers 
     1.0000   1.0000   1.0000   1.0000   1.0000   1.0000   1.0000   1.0000
     1.0000   1.0000   1.0000   1.0000   1.0000   1.0000   1.0000   1.0000
     1.0000   1.0000   1.0000   1.0000   1.0000

          k = 0.1250 0.0722 0.2858 (  3711 PWs)   bands (ev):

  -115.4242 -69.7879 -69.7809 -69.7808 -64.8414 -31.8416 -31.8097 -31.8073
    -9.6991  -8.9736   1.8792   2.0120   2.2603   2.9037   3.0811   4.3662
     5.4706   5.9996   6.0162   6.9799   7.2292

     occupation numbers 
     1.0000   1.0000   1.0000   1.0000   1.0000   1.0000   1.0000   1.0000
     1.0000   1.0000   1.0000   1.0000   1.0000   1.0000   1.0000   1.0000
     1.0000   1.0000   1.0000   1.0000   1.0000

          k = 0.1250 0.0722-0.3810 (  3698 PWs)   bands (ev):

  -115.4242 -69.7879 -69.7809 -69.7808 -64.8414 -31.8417 -31.8097 -31.8073
    -9.6283  -9.0428   1.8722   2.0133   2.2000   2.8677   3.0652   4.4420
     5.4091   6.0535   6.0566   6.9478   7.2020

     occupation numbers 
     1.0000   1.0000   1.0000   1.0000   1.0000   1.0000   1.0000   1.0000
     1.0000   1.0000   1.0000   1.0000   1.0000   1.0000   1.0000   1.0000
     1.0000   1.0000   1.0000   1.0000   1.0000

          k = 0.1250 0.0722-0.2858 (  3711 PWs)   bands (ev):

  -115.4242 -69.7879 -69.7809 -69.7808 -64.8414 -31.8416 -31.8097 -31.8073
    -9.6991  -8.9736   1.8808   2.0133   2.2575   2.9053   3.0800   4.3494
     5.5324   5.9808   5.9899   6.9913   7.2152

     occupation numbers 
     1.0000   1.0000   1.0000   1.0000   1.0000   1.0000   1.0000   1.0000
     1.0000   1.0000   1.0000   1.0000   1.0000   1.0000   1.0000   1.0000
     1.0000   1.0000   1.0000   1.0000   1.0000

          k = 0.1250 0.0722-0.1905 (  3700 PWs)   bands (ev):

  -115.4242 -69.7879 -69.7809 -69.7808 -64.8414 -31.8412 -31.8097 -31.8073
    -9.8299  -8.8471   1.8921   2.0120   2.4363   3.0026   3.1179   4.1207
     5.6412   5.8607   6.0025   7.0689   7.2151

     occupation numbers 
     1.0000   1.0000   1.0000   1.0000   1.0000   1.0000   1.0000   1.0000
     1.0000   1.0000   1.0000   1.0000   1.0000   1.0000   1.0000   1.0000
     1.0000   1.0000   1.0000   1.0000   1.0000

          k = 0.1250 0.0722-0.0953 (  3691 PWs)   bands (ev):

  -115.4242 -69.7879 -69.7810 -69.7808 -64.8414 -31.8409 -31.8098 -31.8074
    -9.9325  -8.7490   1.8980   2.0103   2.6823   3.1522   3.1581   3.7889
     5.5272   5.7461   6.3633   7.1104   7.1294

     occupation numbers 
     1.0000   1.0000   1.0000   1.0000   1.0000   1.0000   1.0000   1.0000
     1.0000   1.0000   1.0000   1.0000   1.0000   1.0000   1.0000   1.0000
     1.0000   1.0000   1.0000   1.0000   1.0000

          k = 0.1250 0.2165 0.0000 (  3691 PWs)   bands (ev):

  -115.4242 -69.7879 -69.7812 -69.7809 -64.8411 -31.8403 -31.8147 -31.8088
    -9.8231  -8.7028   1.8819   2.1577   2.7005   3.1595   3.4030   3.7827
     5.0263   5.4232   6.0412   6.7667   6.8634

     occupation numbers 
     1.0000   1.0000   1.0000   1.0000   1.0000   1.0000   1.0000   1.0000
     1.0000   1.0000   1.0000   1.0000   1.0000   1.0000   1.0000   1.0000
     1.0000   1.0000   1.0000   1.0000   1.0000

          k = 0.1250 0.2165 0.0953 (  3705 PWs)   bands (ev):

  -115.4242 -69.7879 -69.7812 -69.7809 -64.8411 -31.8404 -31.8147 -31.8088
    -9.7899  -8.7305   1.8783   2.1583   2.6173   3.1400   3.1568   4.0244
     5.0964   5.4877   5.8810   6.7911   6.9779

     occupation numbers 
     1.0000   1.0000   1.0000   1.0000   1.0000   1.0000   1.0000   1.0000
     1.0000   1.0000   1.0000   1.0000   1.0000   1.0000   1.0000   1.0000
     1.0000   1.0000   1.0000   1.0000   1.0000

          k = 0.1250 0.2165 0.1905 (  3707 PWs)   bands (ev):

  -115.4242 -69.7879 -69.7812 -69.7809 -64.8411 -31.8407 -31.8147 -31.8088
    -9.7003  -8.8070   1.8640   2.1595   2.4310   2.8722   3.0971   4.2952
     5.1587   5.6577   5.7633   6.6986   7.2038

     occupation numbers 
     1.0000   1.0000   1.0000   1.0000   1.0000   1.0000   1.0000   1.0000
     1.0000   1.0000   1.0000   1.0000   1.0000   1.0000   1.0000   1.0000
     1.0000   1.0000   1.0000   1.0000   1.0000

          k = 0.1250 0.2165 0.2858 (  3698 PWs)   bands (ev):

  -115.4242 -69.7879 -69.7812 -69.7809 -64.8411 -31.8411 -31.8147 -31.8088
    -9.5895  -8.9049   1.8372   2.1603   2.2813   2.6845   3.0557   4.4804
     5.0367   5.8066   5.9558   6.5679   7.3079

     occupation numbers 
     1.0000   1.0000   1.0000   1.0000   1.0000   1.0000   1.0000   1.0000
     1.0000   1.0000   1.0000   1.0000   1.0000   1.0000   1.0000   1.0000
     1.0000   1.0000   1.0000   1.0000   1.0000

          k = 0.1250 0.2165-0.3810 (  3700 PWs)   bands (ev):

  -115.4242 -69.7879 -69.7812 -69.7809 -64.8411 -31.8412 -31.8147 -31.8088
    -9.5321  -8.9570   1.8206   2.1602   2.2330   2.6164   3.0391   4.5636
     4.9467   5.8922   6.0697   6.4935   7.3230

     occupation numbers 
     1.0000   1.0000   1.0000   1.0000   1.0000   1.0000   1.0000   1.0000
     1.0000   1.0000   1.0000   1.0000   1.0000   1.0000   1.0000   1.0000
     1.0000   1.0000   1.0000   1.0000   1.0000

          k = 0.1250 0.2165-0.2858 (  3698 PWs)   bands (ev):

  -115.4242 -69.7879 -69.7812 -69.7809 -64.8411 -31.8411 -31.8147 -31.8088
    -9.5895  -8.9049   1.8372   2.1603   2.2813   2.6845   3.0557   4.4804
     5.0367   5.8066   5.9558   6.5679   7.3079

     occupation numbers 
     1.0000   1.0000   1.0000   1.0000   1.0000   1.0000   1.0000   1.0000
     1.0000   1.0000   1.0000   1.0000   1.0000   1.0000   1.0000   1.0000
     1.0000   1.0000   1.0000   1.0000   1.0000

          k = 0.1250 0.2165-0.1905 (  3707 PWs)   bands (ev):

  -115.4242 -69.7879 -69.7812 -69.7809 -64.8411 -31.8407 -31.8147 -31.8088
    -9.7003  -8.8070   1.8640   2.1595   2.4310   2.8722   3.0971   4.2952
     5.1587   5.6577   5.7633   6.6986   7.2038

     occupation numbers 
     1.0000   1.0000   1.0000   1.0000   1.0000   1.0000   1.0000   1.0000
     1.0000   1.0000   1.0000   1.0000   1.0000   1.0000   1.0000   1.0000
     1.0000   1.0000   1.0000   1.0000   1.0000

          k = 0.1250 0.2165-0.0953 (  3705 PWs)   bands (ev):

  -115.4242 -69.7879 -69.7812 -69.7809 -64.8411 -31.8404 -31.8147 -31.8088
    -9.7899  -8.7305   1.8783   2.1583   2.6173   3.1400   3.1568   4.0244
     5.0964   5.4877   5.8810   6.7911   6.9779

     occupation numbers 
     1.0000   1.0000   1.0000   1.0000   1.0000   1.0000   1.0000   1.0000
     1.0000   1.0000   1.0000   1.0000   1.0000   1.0000   1.0000   1.0000
     1.0000   1.0000   1.0000   1.0000   1.0000

          k = 0.1250 0.3608 0.0000 (  3703 PWs)   bands (ev):

  -115.4242 -69.7878 -69.7816 -69.7811 -64.8408 -31.8396 -31.8215 -31.8112
    -9.5898  -8.7088   1.9335   2.4044   2.6240   3.1346   3.3767   4.2216
     4.4714   4.9543   5.4259   6.4182   6.5260

     occupation numbers 
     1.0000   1.0000   1.0000   1.0000   1.0000   1.0000   1.0000   1.0000
     1.0000   1.0000   1.0000   1.0000   1.0000   1.0000   1.0000   1.0000
     1.0000   1.0000   1.0000   1.0000   1.0000

          k = 0.1250 0.3608 0.0953 (  3711 PWs)   bands (ev):

  -115.4242 -69.7878 -69.7816 -69.7811 -64.8408 -31.8398 -31.8215 -31.8112
    -9.5652  -8.7226   1.9274   2.3995   2.5583   3.1119   3.1849   4.0837
     4.6374   5.1866   5.3826   6.3806   6.6904

     occupation numbers 
     1.0000   1.0000   1.0000   1.0000   1.0000   1.0000   1.0000   1.0000
     1.0000   1.0000   1.0000   1.0000   1.0000   1.0000   1.0000   1.0000
     1.0000   1.0000   1.0000   1.0000   1.0000

          k = 0.1250 0.3608 0.1905 (  3705 PWs)   bands (ev):

  -115.4242 -69.7878 -69.7816 -69.7811 -64.8408 -31.8401 -31.8215 -31.8111
    -9.5012  -8.7609   1.9122   2.3366   2.4577   2.8031   3.0632   4.0743
     4.7441   5.3267   5.6377   6.2569   7.0562

     occupation numbers 
     1.0000   1.0000   1.0000   1.0000   1.0000   1.0000   1.0000   1.0000
     1.0000   1.0000   1.0000   1.0000   1.0000   1.0000   1.0000   1.0000
     1.0000   1.0000   1.0000   1.0000   1.0000

          k = 0.1250 0.3608 0.2858 (  3706 PWs)   bands (ev):

  -115.4242 -69.7879 -69.7816 -69.7811 -64.8408 -31.8404 -31.8215 -31.8111
    -9.4275  -8.8088   1.8807   2.2172   2.4320   2.5255   3.0174   4.1066
     4.7383   5.4632   5.9287   6.1225   7.3504

     occupation numbers 
     1.0000   1.0000   1.0000   1.0000   1.0000   1.0000   1.0000   1.0000
     1.0000   1.0000   1.0000   1.0000   1.0000   1.0000   1.0000   1.0000
     1.0000   1.0000   1.0000   1.0000   1.0000

          k = 0.1250 0.3608-0.3810 (  3718 PWs)   bands (ev):

  -115.4242 -69.7879 -69.7816 -69.7811 -64.8408 -31.8405 -31.8215 -31.8111
    -9.3927  -8.8329   1.8545   2.1813   2.3938   2.4569   3.0000   4.1343
     4.6996   5.6340   5.8265   6.1869   7.4596

     occupation numbers 
     1.0000   1.0000   1.0000   1.0000   1.0000   1.0000   1.0000   1.0000
     1.0000   1.0000   1.0000   1.0000   1.0000   1.0000   1.0000   1.0000
     1.0000   1.0000   1.0000   1.0000   1.0000

          k = 0.1250 0.3608-0.2858 (  3706 PWs)   bands (ev):

  -115.4242 -69.7879 -69.7816 -69.7811 -64.8408 -31.8404 -31.8215 -31.8111
    -9.4276  -8.8087   1.8765   2.2232   2.4340   2.5185   3.0193   4.1436
     4.6848   5.4772   5.9273   6.1109   7.3735

     occupation numbers 
     1.0000   1.0000   1.0000   1.0000   1.0000   1.0000   1.0000   1.0000
     1.0000   1.0000   1.0000   1.0000   1.0000   1.0000   1.0000   1.0000
     1.0000   1.0000   1.0000   1.0000   1.0000

          k = 0.1250 0.3608-0.1905 (  3705 PWs)   bands (ev):

  -115.4242 -69.7878 -69.7816 -69.7811 -64.8408 -31.8401 -31.8215 -31.8111
    -9.5013  -8.7608   1.9161   2.3245   2.4590   2.8006   3.0658   4.1386
     4.6750   5.3303   5.6154   6.2601   7.0911

     occupation numbers 
     1.0000   1.0000   1.0000   1.0000   1.0000   1.0000   1.0000   1.0000
     1.0000   1.0000   1.0000   1.0000   1.0000   1.0000   1.0000   1.0000
     1.0000   1.0000   1.0000   1.0000   1.0000

          k = 0.1250 0.3608-0.0953 (  3711 PWs)   bands (ev):

  -115.4242 -69.7878 -69.7816 -69.7811 -64.8408 -31.8398 -31.8215 -31.8112
    -9.5653  -8.7226   1.9326   2.3933   2.5529   3.1121   3.1740   4.1621
     4.6000   5.1584   5.3489   6.4029   6.7109

     occupation numbers 
     1.0000   1.0000   1.0000   1.0000   1.0000   1.0000   1.0000   1.0000
     1.0000   1.0000   1.0000   1.0000   1.0000   1.0000   1.0000   1.0000
     1.0000   1.0000   1.0000   1.0000   1.0000

          k = 0.1250 0.5052 0.0000 (  3702 PWs)   bands (ev):

  -115.4242 -69.7878 -69.7818 -69.7812 -64.8405 -31.8392 -31.8263 -31.8128
    -9.3921  -8.7423   2.0635   2.5670   2.6550   3.1244   3.2542   4.0180
     4.5750   4.8133   4.9301   6.1509   6.2559

     occupation numbers 
     1.0000   1.0000   1.0000   1.0000   1.0000   1.0000   1.0000   1.0000
     1.0000   1.0000   1.0000   1.0000   1.0000   1.0000   1.0000   1.0000
     1.0000   1.0000   1.0000   1.0000   1.0000

          k = 0.1250 0.5052 0.0953 (  3711 PWs)   bands (ev):

  -115.4242 -69.7878 -69.7818 -69.7812 -64.8405 -31.8393 -31.8263 -31.8128
    -9.3781  -8.7418   2.0507   2.4991   2.6550   3.1014   3.1986   3.7213
     4.4241   4.9205   5.3698   6.1550   6.3859

     occupation numbers 
     1.0000   1.0000   1.0000   1.0000   1.0000   1.0000   1.0000   1.0000
     1.0000   1.0000   1.0000   1.0000   1.0000   1.0000   1.0000   1.0000
     1.0000   1.0000   1.0000   1.0000   1.0000

          k = 0.1250 0.5052 0.1905 (  3703 PWs)   bands (ev):

  -115.4242 -69.7878 -69.7818 -69.7812 -64.8405 -31.8396 -31.8263 -31.8128
    -9.3434  -8.7414   2.0202   2.3500   2.6530   2.8443   3.0588   3.5151
     4.5260   4.9570   5.8051   6.0553   6.8788

     occupation numbers 
     1.0000   1.0000   1.0000   1.0000   1.0000   1.0000   1.0000   1.0000
     1.0000   1.0000   1.0000   1.0000   1.0000   1.0000   1.0000   1.0000
[...]
    -9.3435  -8.7413   2.0367   2.3215   2.6546   2.8416   3.0582   3.5423
     4.5251   4.9461   5.7757   6.0587   6.9081

     occupation numbers 
     1.0000   1.0000   1.0000   1.0000   1.0000   1.0000   1.0000   1.0000
     1.0000   1.0000   1.0000   1.0000   1.0000   1.0000   1.0000   1.0000
     1.0000   1.0000   1.0000   1.0000   1.0000

          k =-0.5000-0.1443-0.0953 (  3711 PWs)   bands (ev):

  -115.4242 -69.7878 -69.7818 -69.7812 -64.8405 -31.8393 -31.8263 -31.8128
    -9.3782  -8.7417   2.0627   2.4763   2.6583   3.1026   3.1787   3.7631
     4.4516   4.8906   5.3183   6.1845   6.3977

     occupation numbers 
     1.0000   1.0000   1.0000   1.0000   1.0000   1.0000   1.0000   1.0000
     1.0000   1.0000   1.0000   1.0000   1.0000   1.0000   1.0000   1.0000
     1.0000   1.0000   1.0000   1.0000   1.0000

          k =-0.5000 0.0000 0.0000 (  3701 PWs)   bands (ev):

  -115.4242 -69.7878 -69.7817 -69.7813 -64.8405 -31.8392 -31.8245 -31.8147
    -9.3962  -8.7391   2.1400   2.5587   2.6753   3.0997   3.2911   4.0508
     4.3881   4.8375   5.0552   6.0007   6.1822

     occupation numbers 
     1.0000   1.0000   1.0000   1.0000   1.0000   1.0000   1.0000   1.0000
     1.0000   1.0000   1.0000   1.0000   1.0000   1.0000   1.0000   1.0000
     1.0000   1.0000   1.0000   1.0000   1.0000

          k =-0.5000 0.0000 0.0953 (  3708 PWs)   bands (ev):

  -115.4242 -69.7878 -69.7817 -69.7813 -64.8405 -31.8393 -31.8244 -31.8147
    -9.3819  -8.7391   2.1407   2.4825   2.6718   3.0712   3.1992   3.9400
     4.1252   4.9876   5.3899   5.9531   6.3920

     occupation numbers 
     1.0000   1.0000   1.0000   1.0000   1.0000   1.0000   1.0000   1.0000
     1.0000   1.0000   1.0000   1.0000   1.0000   1.0000   1.0000   1.0000
     1.0000   1.0000   1.0000   1.0000   1.0000

          k =-0.5000 0.0000 0.1905 (  3705 PWs)   bands (ev):

  -115.4242 -69.7878 -69.7817 -69.7813 -64.8405 -31.8396 -31.8244 -31.8147
    -9.3463  -8.7400   2.1372   2.3183   2.6614   2.8331   3.0284   3.7141
     4.2911   4.9303   5.7436   5.9577   6.9223

     occupation numbers 
     1.0000   1.0000   1.0000   1.0000   1.0000   1.0000   1.0000   1.0000
     1.0000   1.0000   1.0000   1.0000   1.0000   1.0000   1.0000   1.0000
     1.0000   1.0000   1.0000   1.0000   1.0000

          k =-0.5000 0.0000 0.2858 (  3714 PWs)   bands (ev):

  -115.4242 -69.7878 -69.7817 -69.7813 -64.8405 -31.8399 -31.8244 -31.8146
    -9.3089  -8.7424   2.1089   2.1793   2.4988   2.6527   2.9844   3.6738
     4.4998   4.8931   5.5464   6.2675   7.4236

     occupation numbers 
     1.0000   1.0000   1.0000   1.0000   1.0000   1.0000   1.0000   1.0000
     1.0000   1.0000   1.0000   1.0000   1.0000   1.0000   1.0000   1.0000
     1.0000   1.0000   1.0000   1.0000   1.0000

          k =-0.5000-0.0000-0.3810 (  3714 PWs)   bands (ev):

  -115.4242 -69.7878 -69.7817 -69.7813 -64.8405 -31.8400 -31.8244 -31.8146
    -9.2928  -8.7439   2.0770   2.1285   2.3936   2.6469   2.9691   3.6679
     4.6080   4.8896   5.4257   6.3836   7.6194

     occupation numbers 
     1.0000   1.0000   1.0000   1.0000   1.0000   1.0000   1.0000   1.0000
     1.0000   1.0000   1.0000   1.0000   1.0000   1.0000   1.0000   1.0000
     1.0000   1.0000   1.0000   1.0000   1.0000

          k =-0.5000-0.0000-0.2858 (  3714 PWs)   bands (ev):

  -115.4242 -69.7878 -69.7817 -69.7813 -64.8405 -31.8399 -31.8244 -31.8146
    -9.3089  -8.7424   2.1089   2.1793   2.4988   2.6527   2.9844   3.6738
     4.4998   4.8931   5.5464   6.2675   7.4236

     occupation numbers 
     1.0000   1.0000   1.0000   1.0000   1.0000   1.0000   1.0000   1.0000
     1.0000   1.0000   1.0000   1.0000   1.0000   1.0000   1.0000   1.0000
     1.0000   1.0000   1.0000   1.0000   1.0000

          k =-0.5000-0.0000-0.1905 (  3705 PWs)   bands (ev):

  -115.4242 -69.7878 -69.7817 -69.7813 -64.8405 -31.8396 -31.8244 -31.8147
    -9.3463  -8.7400   2.1372   2.3183   2.6614   2.8331   3.0284   3.7141
     4.2911   4.9303   5.7436   5.9577   6.9223

     occupation numbers 
     1.0000   1.0000   1.0000   1.0000   1.0000   1.0000   1.0000   1.0000
     1.0000   1.0000   1.0000   1.0000   1.0000   1.0000   1.0000   1.0000
     1.0000   1.0000   1.0000   1.0000   1.0000

          k =-0.5000 0.0000-0.0953 (  3708 PWs)   bands (ev):

  -115.4242 -69.7878 -69.7817 -69.7813 -64.8405 -31.8393 -31.8244 -31.8147
    -9.3819  -8.7391   2.1407   2.4825   2.6718   3.0712   3.1992   3.9400
     4.1252   4.9876   5.3899   5.9531   6.3920

     occupation numbers 
     1.0000   1.0000   1.0000   1.0000   1.0000   1.0000   1.0000   1.0000
     1.0000   1.0000   1.0000   1.0000   1.0000   1.0000   1.0000   1.0000
     1.0000   1.0000   1.0000   1.0000   1.0000

          k =-0.5000 0.1443 0.0000 (  3702 PWs)   bands (ev):

  -115.4242 -69.7878 -69.7818 -69.7812 -64.8405 -31.8392 -31.8263 -31.8128
    -9.3921  -8.7423   2.0634   2.5670   2.6550   3.1244   3.2542   4.0180
     4.5750   4.8133   4.9301   6.1509   6.2559

     occupation numbers 
     1.0000   1.0000   1.0000   1.0000   1.0000   1.0000   1.0000   1.0000
     1.0000   1.0000   1.0000   1.0000   1.0000   1.0000   1.0000   1.0000
     1.0000   1.0000   1.0000   1.0000   1.0000

          k =-0.5000 0.1443 0.0953 (  3711 PWs)   bands (ev):

  -115.4242 -69.7878 -69.7818 -69.7812 -64.8405 -31.8393 -31.8263 -31.8128
    -9.3782  -8.7417   2.0627   2.4763   2.6583   3.1026   3.1787   3.7631
     4.4516   4.8906   5.3183   6.1845   6.3977

     occupation numbers 
     1.0000   1.0000   1.0000   1.0000   1.0000   1.0000   1.0000   1.0000
     1.0000   1.0000   1.0000   1.0000   1.0000   1.0000   1.0000   1.0000
     1.0000   1.0000   1.0000   1.0000   1.0000

          k =-0.5000 0.1443 0.1905 (  3703 PWs)   bands (ev):

  -115.4242 -69.7878 -69.7818 -69.7812 -64.8405 -31.8396 -31.8263 -31.8128
    -9.3435  -8.7413   2.0367   2.3215   2.6546   2.8416   3.0582   3.5423
     4.5251   4.9461   5.7757   6.0587   6.9081

     occupation numbers 
     1.0000   1.0000   1.0000   1.0000   1.0000   1.0000   1.0000   1.0000
     1.0000   1.0000   1.0000   1.0000   1.0000   1.0000   1.0000   1.0000
     1.0000   1.0000   1.0000   1.0000   1.0000

          k =-0.5000 0.1443 0.2858 (  3706 PWs)   bands (ev):

  -115.4242 -69.7878 -69.7818 -69.7812 -64.8405 -31.8399 -31.8262 -31.8128
    -9.3073  -8.7422   1.9806   2.2077   2.4951   2.6538   3.0174   3.5025
     4.6075   5.0784   5.7599   6.1814   7.3650

     occupation numbers 
     1.0000   1.0000   1.0000   1.0000   1.0000   1.0000   1.0000   1.0000
     1.0000   1.0000   1.0000   1.0000   1.0000   1.0000   1.0000   1.0000
     1.0000   1.0000   1.0000   1.0000   1.0000

          k =-0.5000 0.1443-0.3810 (  3718 PWs)   bands (ev):

  -115.4242 -69.7878 -69.7818 -69.7812 -64.8405 -31.8400 -31.8262 -31.8128
    -9.2917  -8.7431   1.9554   2.1439   2.3917   2.6513   3.0016   3.4936
     4.6354   5.1907   5.6325   6.2926   7.5313

     occupation numbers 
     1.0000   1.0000   1.0000   1.0000   1.0000   1.0000   1.0000   1.0000
     1.0000   1.0000   1.0000   1.0000   1.0000   1.0000   1.0000   1.0000
     1.0000   1.0000   1.0000   1.0000   1.0000

          k =-0.5000 0.1443-0.2858 (  3706 PWs)   bands (ev):

  -115.4242 -69.7878 -69.7818 -69.7812 -64.8405 -31.8399 -31.8262 -31.8128
    -9.3072  -8.7423   1.9765   2.2143   2.4961   2.6541   3.0170   3.4925
     4.6157   5.0775   5.7599   6.1931   7.3482

     occupation numbers 
     1.0000   1.0000   1.0000   1.0000   1.0000   1.0000   1.0000   1.0000
     1.0000   1.0000   1.0000   1.0000   1.0000   1.0000   1.0000   1.0000
     1.0000   1.0000   1.0000   1.0000   1.0000

          k =-0.5000 0.1443-0.1905 (  3703 PWs)   bands (ev):

  -115.4242 -69.7878 -69.7818 -69.7812 -64.8405 -31.8396 -31.8263 -31.8128
    -9.3434  -8.7414   2.0202   2.3500   2.6530   2.8443   3.0588   3.5151
     4.5260   4.9570   5.8051   6.0553   6.8788

     occupation numbers 
     1.0000   1.0000   1.0000   1.0000   1.0000   1.0000   1.0000   1.0000
     1.0000   1.0000   1.0000   1.0000   1.0000   1.0000   1.0000   1.0000
     1.0000   1.0000   1.0000   1.0000   1.0000

          k =-0.5000 0.1443-0.0953 (  3711 PWs)   bands (ev):

  -115.4242 -69.7878 -69.7818 -69.7812 -64.8405 -31.8393 -31.8263 -31.8128
    -9.3781  -8.7418   2.0507   2.4991   2.6550   3.1014   3.1986   3.7213
     4.4241   4.9205   5.3698   6.1550   6.3859

     occupation numbers 
     1.0000   1.0000   1.0000   1.0000   1.0000   1.0000   1.0000   1.0000
     1.0000   1.0000   1.0000   1.0000   1.0000   1.0000   1.0000   1.0000
     1.0000   1.0000   1.0000   1.0000   1.0000

          k =-0.5000-0.8660-0.0000 (  3706 PWs)   bands (ev):

  -115.4242 -69.7878 -69.7819 -69.7811 -64.8405 -31.8392 -31.8277 -31.8114
    -9.3879  -8.7454   1.9934   2.5648   2.6420   3.1519   3.2282   4.0117
     4.6383   4.7469   4.9723   6.1573   6.4348

     occupation numbers 
     1.0000   1.0000   1.0000   1.0000   1.0000   1.0000   1.0000   1.0000
     1.0000   1.0000   1.0000   1.0000   1.0000   1.0000   1.0000   1.0000
     1.0000   1.0000   1.0000   1.0000   1.0000

          k =-0.5000-0.8660 0.0953 (  3700 PWs)   bands (ev):

  -115.4242 -69.7878 -69.7819 -69.7811 -64.8405 -31.8393 -31.8277 -31.8114
    -9.3744  -8.7444   1.9817   2.4870   2.6413   3.1338   3.1794   3.6734
     4.5056   5.0327   5.2342   6.3611   6.3884

     occupation numbers 
     1.0000   1.0000   1.0000   1.0000   1.0000   1.0000   1.0000   1.0000
     1.0000   1.0000   1.0000   1.0000   1.0000   1.0000   1.0000   1.0000
     1.0000   1.0000   1.0000   1.0000   1.0000

          k =-0.5000-0.8660 0.1905 (  3708 PWs)   bands (ev):

  -115.4242 -69.7878 -69.7819 -69.7811 -64.8405 -31.8396 -31.8277 -31.8114
    -9.3407  -8.7426   1.9423   2.3379   2.6394   2.8479   3.0929   3.4284
     4.5468   5.1940   5.6656   6.2584   6.8465

     occupation numbers 
     1.0000   1.0000   1.0000   1.0000   1.0000   1.0000   1.0000   1.0000
     1.0000   1.0000   1.0000   1.0000   1.0000   1.0000   1.0000   1.0000
     1.0000   1.0000   1.0000   1.0000   1.0000

          k =-0.5000-0.8660 0.2858 (  3714 PWs)   bands (ev):

  -115.4242 -69.7878 -69.7819 -69.7811 -64.8405 -31.8399 -31.8277 -31.8114
    -9.3056  -8.7421   1.8911   2.2062   2.4953   2.6374   3.0554   3.3974
     4.5830   5.4034   5.9588   6.0772   7.2646

     occupation numbers 
     1.0000   1.0000   1.0000   1.0000   1.0000   1.0000   1.0000   1.0000
     1.0000   1.0000   1.0000   1.0000   1.0000   1.0000   1.0000   1.0000
     1.0000   1.0000   1.0000   1.0000   1.0000

          k =-0.5000-0.8660-0.3810 (  3720 PWs)   bands (ev):

  -115.4242 -69.7878 -69.7819 -69.7811 -64.8405 -31.8400 -31.8277 -31.8114
    -9.2905  -8.7422   1.8730   2.1271   2.3919   2.6365   3.0407   3.3934
     4.5938   5.5338   5.9576   6.0729   7.4131

     occupation numbers 
     1.0000   1.0000   1.0000   1.0000   1.0000   1.0000   1.0000   1.0000
     1.0000   1.0000   1.0000   1.0000   1.0000   1.0000   1.0000   1.0000
     1.0000   1.0000   1.0000   1.0000   1.0000

     highest occupied level (ev):     7.6714

!    total energy              =    -651.12639047 Ry
     Harris-Foulkes estimate   =    -651.12639018 Ry
     estimated scf accuracy    <       0.00000032 Ry

     The total energy is the sum of the following terms:

     one-electron contribution =    -525.18817541 Ry
     hartree contribution      =     276.59932716 Ry
     xc contribution           =     -73.09310359 Ry
     ewald contribution        =    -329.44443864 Ry

     convergence has been achieved in   7 iterations

     Forces acting on atoms (cartesian axes, Ry/au):

     atom    1 type  3   force =    -0.00000059    0.00000148   -0.00588445
     atom    2 type  3   force =    -0.00000009    0.00000004   -0.00217739
     atom    3 type  2   force =     0.00000124    0.00000016    0.00315043
     atom    4 type  1   force =    -0.00000055   -0.00000169    0.00491142
     The non-local contrib.  to forces
     atom    1 type  3   force =    -0.00000005   -0.00000262    0.16557076
     atom    2 type  3   force =     0.00000023    0.00000382    0.01130557
     atom    3 type  2   force =     0.00000228    0.00000273    0.28796182
     atom    4 type  1   force =     0.00000172   -0.00000598    0.11469348
     The ionic contribution  to forces
     atom    1 type  3   force =    -0.00000943    0.00006864   -3.77487247
     atom    2 type  3   force =    -0.00000995   -0.00005056    1.31187588
     atom    3 type  2   force =     0.00000832    0.00005435    2.04559705
     atom    4 type  1   force =     0.00001106   -0.00007243    0.41739953
     The local contribution  to forces
     atom    1 type  3   force =     0.00000851   -0.00006408    3.60445414
     atom    2 type  3   force =     0.00000949    0.00004631   -1.32567766
     atom    3 type  2   force =    -0.00001004   -0.00005596   -2.32989807
     atom    4 type  1   force =    -0.00001298    0.00007580   -0.52739077
     The core correction contribution to forces
     atom    1 type  3   force =     0.00000000   -0.00000001   -0.00104711
     atom    2 type  3   force =    -0.00000001   -0.00000003    0.00035082
     atom    3 type  2   force =     0.00000000    0.00000000    0.00000000
     atom    4 type  1   force =     0.00000000    0.00000000    0.00000000
     The Hubbard contrib.    to forces
     atom    1 type  3   force =     0.00000000    0.00000000    0.00000000
     atom    2 type  3   force =     0.00000000    0.00000000    0.00000000
     atom    3 type  2   force =     0.00000000    0.00000000    0.00000000
     atom    4 type  1   force =     0.00000000    0.00000000    0.00000000
     The SCF correction term to forces
     atom    1 type  3   force =     0.00000000    0.00000000    0.00000000
     atom    2 type  3   force =     0.00000000    0.00000000    0.00000000
     atom    3 type  2   force =     0.00000000    0.00000000    0.00000000
     atom    4 type  1   force =     0.00000000    0.00000000    0.00000000

     Total force =     0.000000     Total SCF correction =     0.000000


     Computing stress (Cartesian axis) and pressure

          total   stress  (Ry/bohr**3)                   (kbar)     P=    3.80
   0.00002846   0.00000001  -0.00000001          4.19      0.00     -0.00
   0.00000001   0.00002849   0.00000001          0.00      4.19      0.00
  -0.00000001   0.00000001   0.00002054         -0.00      0.00      3.02

     kinetic stress (kbar)  27486.49      0.00     -0.00
                                0.00  27486.49      0.00
                               -0.00      0.00  27633.18

     local   stress (kbar) -10434.85     -0.01     -0.01
                               -0.01 -10435.08      0.01
                               -0.01      0.01  -8457.15

     nonloc. stress (kbar)   1849.13     -0.00      0.00
                               -0.00   1849.13     -0.00
                                0.00     -0.00   1792.86

     hartree stress (kbar)  44562.70      0.01      0.01
                                0.01  44562.80     -0.00
                                0.01     -0.00  43525.64

     exc-cor stress (kbar) -10878.73     -0.00      0.00
                               -0.00 -10878.73     -0.00
                                0.00     -0.00 -10880.31

     corecor stress (kbar)   -259.13     -0.00      0.00
                               -0.00   -259.13     -0.00
                                0.00     -0.00   -259.39

     ewald   stress (kbar) -52321.42      0.01      0.00
                                0.01 -52321.28     -0.00
                                0.00     -0.00 -53351.82

     hubbard stress (kbar)      0.00      0.00      0.00
                                0.00      0.00      0.00
                                0.00      0.00      0.00

     london  stress (kbar)      0.00      0.00      0.00
                                0.00      0.00      0.00
                                0.00      0.00      0.00

     DFT-D3  stress (kbar)      0.00      0.00      0.00
                                0.00      0.00      0.00
                                0.00      0.00      0.00

     XDM     stress (kbar)      0.00      0.00      0.00
                                0.00      0.00      0.00
                                0.00      0.00      0.00

     dft-nl  stress (kbar)      0.00      0.00      0.00
                                0.00      0.00      0.00
                                0.00      0.00      0.00

     TS-vdW  stress (kbar)      0.00      0.00      0.00
                                0.00      0.00      0.00
                                0.00      0.00      0.00



     Writing output data file ZnO.save/
 
     init_run     :      0.56s CPU      1.19s WALL (       1 calls)
     electrons    :      6.34s CPU      6.76s WALL (       1 calls)
     forces       :      0.16s CPU      0.17s WALL (       1 calls)
     stress       :      0.30s CPU      0.31s WALL (       1 calls)

     Called by init_run:
     wfcinit      :      0.36s CPU      0.81s WALL (       1 calls)
     wfcinit:atom :      0.00s CPU      0.00s WALL (      65 calls)
     wfcinit:wfcr :      0.35s CPU      0.79s WALL (      65 calls)
     potinit      :      0.07s CPU      0.09s WALL (       1 calls)
     hinit0       :      0.11s CPU      0.24s WALL (       1 calls)

     Called by electrons:
     c_bands      :      5.24s CPU      5.59s WALL (       7 calls)
     sum_band     :      0.79s CPU      0.83s WALL (       7 calls)
     v_of_rho     :      0.25s CPU      0.26s WALL (       8 calls)
     v_h          :      0.00s CPU      0.00s WALL (       8 calls)
     v_xc         :      0.30s CPU      0.32s WALL (      10 calls)
     newd         :      0.06s CPU      0.07s WALL (       8 calls)
     mix_rho      :      0.01s CPU      0.02s WALL (       7 calls)

     Called by c_bands:
     init_us_2    :      0.08s CPU      0.09s WALL (    1105 calls)
     cegterg      :      4.88s CPU      5.10s WALL (     455 calls)

     Called by sum_band:
     sum_band:bec :      0.01s CPU      0.01s WALL (     455 calls)
     addusdens    :      0.05s CPU      0.06s WALL (       7 calls)

     Called by *egterg:
     h_psi        :      3.02s CPU      3.13s WALL (    1653 calls)
     s_psi        :      0.10s CPU      0.10s WALL (    1653 calls)
     g_psi        :      0.01s CPU      0.01s WALL (    1133 calls)
     cdiaghg      :      1.33s CPU      1.81s WALL (    1588 calls)
     cegterg:over :      0.35s CPU      0.40s WALL (    1133 calls)
     cegterg:upda :      0.17s CPU      0.17s WALL (    1133 calls)
     cegterg:last :      0.09s CPU      0.09s WALL (     455 calls)
     cdiaghg:chol :      0.10s CPU      0.31s WALL (    1588 calls)
     cdiaghg:inve :      0.02s CPU      0.03s WALL (    1588 calls)
     cdiaghg:para :      0.13s CPU      0.14s WALL (    3176 calls)

     Called by h_psi:
     h_psi:pot    :      3.01s CPU      3.12s WALL (    1653 calls)
     h_psi:calbec :      0.17s CPU      0.18s WALL (    1653 calls)
     vloc_psi     :      2.74s CPU      2.83s WALL (    1653 calls)
     add_vuspsi   :      0.10s CPU      0.10s WALL (    1653 calls)

     General routines
     calbec       :      0.27s CPU      0.28s WALL (    2433 calls)
     fft          :      0.07s CPU      0.12s WALL (     127 calls)
     ffts         :      0.00s CPU      0.00s WALL (      15 calls)
     fftw         :      3.11s CPU      3.22s WALL (   60345 calls)
     interpolate  :      0.00s CPU      0.01s WALL (       8 calls)
 
     Parallel routines
     fft_scatt_xy :      0.49s CPU      0.51s WALL (   60487 calls)
     fft_scatt_yz :      1.61s CPU      1.68s WALL (   60487 calls)
 
     PWSCF        :      7.65s CPU     10.28s WALL

 
   This run was terminated on:  23:25:40  15Jun2022            

=------------------------------------------------------------------------------=
   JOB DONE.
=------------------------------------------------------------------------------=
