
     Program PWSCF v.6.4.1 starts on  8Nov2021 at 21:44:33 

     This program is part of the open-source Quantum ESPRESSO suite
     for quantum simulation of materials; please cite
         "P. Giannozzi et al., J. Phys.:Condens. Matter 21 395502 (2009);
         "P. Giannozzi et al., J. Phys.:Condens. Matter 29 465901 (2017);
          URL http://www.quantum-espresso.org", 
     in publications or presentations arising from this work. More details at
     http://www.quantum-espresso.org/quote

     Parallel version (MPI), running on   128 processors

     MPI processes distributed on     2 nodes
     K-points division:     npool     =       8
     R & G space division:  proc/nbgrp/npool/nimage =      16
     Waiting for input...
     Reading input from standard input
Warning: card &IONS ignored
Warning: card   UPSCALE           = 100.D0, ignored
Warning: card / ignored
Warning: card &CELL ignored
Warning: card   CELL_DYNAMICS     = 'BFGS' ignored
Warning: card   PRESS_CONV_THR    = 0.5D0 ignored
Warning: card   CELL_DOFREE = 'Z' ignored
Warning: card / ignored

     Current dimensions of program PWSCF are:
     Max number of different atomic species (ntypx) = 10
     Max number of k-points (npk) =  40000
     Max angular momentum in pseudopotentials (lmaxx) =  3

     Subspace diagonalization in iterative solution of the eigenvalue problem:
     one sub-group per band group will be used
     scalapack distributed-memory algorithm (size of sub-group:  2*  2 procs)

 
     Parallelization info
     --------------------
     sticks:   dense  smooth     PW     G-vecs:    dense   smooth      PW
     Min         730     350     95                61826    20549    2961
     Max         731     351     96                61828    20552    2966
     Sum       11681    5607   1531               989225   328807   47429
 


     bravais-lattice index     =            0
     lattice parameter (alat)  =      18.3962  a.u.
     unit-cell volume          =    5238.3865 (a.u.)^3
     number of atoms/cell      =           72
     number of atomic types    =            3
     number of electrons       =       836.00
     number of Kohn-Sham states=          502
     kinetic-energy cutoff     =      60.0000  Ry
     charge density cutoff     =     500.0000  Ry
     convergence threshold     =      1.0E-08
     mixing beta               =       0.5000
     number of iterations used =            8  plain     mixing
     Exchange-correlation      = SLA  PW   PSX  PSC ( 1  4 10  8 0 0)
     Using LIBXC version       =    4   3   4

     celldm(1)=  18.396228  celldm(2)=   0.000000  celldm(3)=   0.000000
     celldm(4)=   0.000000  celldm(5)=   0.000000  celldm(6)=   0.000000

     crystal axes: (cart. coord. in units of alat)
               a(1) = (   0.999999  -0.001169  -0.000203 )  
               a(2) = (  -0.501010   0.867329   0.000174 )  
               a(3) = (  -0.000266   0.000110   0.970781 )  

     reciprocal axes: (cart. coord. in units 2 pi/alat)
               b(1) = (  1.000676  0.578038  0.000209 )  
               b(2) = (  0.001348  1.153744 -0.000130 )  
               b(3) = (  0.000209 -0.000086  1.030099 )  


     PseudoPot. # 1 for Zn read from file:
     ./GBRV_PBEsol/zn_pbesol_v1.uspp.F.UPF
     MD5 check sum: 7d8615e52efe7c1e2b1899de8658bae2
     Pseudo is Ultrasoft, Zval = 20.0
     Generated by new atomic code, or converted to UPF format
     Using radial grid of  943 points,  6 beta functions with: 
                l(1) =   0
                l(2) =   0
                l(3) =   1
                l(4) =   1
                l(5) =   2
                l(6) =   2
     Q(r) pseudized with  8 coefficients,  rinner =    1.100   1.100   1.100
                                                       1.100   1.100

     PseudoPot. # 2 for O  read from file:
     ./GBRV_PBEsol/o_pbesol_v1.2.uspp.F.UPF
     MD5 check sum: 501638753501ef6325af9037351f7734
     Pseudo is Ultrasoft + core correction, Zval =  6.0
     Generated by new atomic code, or converted to UPF format
     Using radial grid of  737 points,  5 beta functions with: 
                l(1) =   0
                l(2) =   0
                l(3) =   1
                l(4) =   1
                l(5) =   2
     Q(r) pseudized with  8 coefficients,  rinner =    0.900   0.900   0.900
                                                       0.900   0.900

     PseudoPot. # 3 for Mg read from file:
     ./GBRV_PBEsol/mg_pbesol_v1.4.uspp.F.UPF
     MD5 check sum: 4059f37963cf5867752dbf5ab2400678
     Pseudo is Ultrasoft, Zval = 10.0
     Generated by new atomic code, or converted to UPF format
     Using radial grid of  821 points,  7 beta functions with: 
                l(1) =   0
                l(2) =   0
                l(3) =   0
                l(4) =   1
                l(5) =   1
                l(6) =   2
                l(7) =   2
     Q(r) pseudized with  8 coefficients,  rinner =    1.200   1.200   1.200
                                                       1.200   1.200

     atomic species   valence    mass     pseudopotential
        Zn            20.00    65.38000     Zn( 1.00)
        O              6.00    15.99900     O ( 1.00)
        Mg            10.00    24.30500     Mg( 1.00)

     No symmetry found


                                    s                        frac. trans.

      isym =  1     identity                                     

 cryst.   s( 1) = (     1          0          0      )
                  (     0          1          0      )
                  (     0          0          1      )

 cart.    s( 1) = (  1.0000000 -0.0000000  0.0000000 )
                  ( -0.0000000  1.0000000  0.0000000 )
                  ( -0.0000000  0.0000000  1.0000000 )


   Cartesian axes

     site n.     atom                  positions (alat units)
         1           Zn  tau(   1) = (   0.1696452   0.0979847   0.2440698  )
         2           Zn  tau(   2) = (   0.1701585   0.0992083   0.7335631  )
         3           Zn  tau(   3) = (  -0.0004580   0.3844788   0.2460706  )
         4           Zn  tau(   4) = (  -0.0000326   0.3849716   0.7304849  )
         5           Zn  tau(   5) = (  -0.1697518   0.6731383   0.2441946  )
         6           Zn  tau(   6) = (  -0.1686104   0.6732662   0.7323239  )
         7           Zn  tau(   7) = (   0.4987802   0.0944026   0.2457698  )
         8           Mg  tau(   8) = (   0.4994102   0.0949134   0.7305070  )
         9           Zn  tau(   9) = (   0.3332748   0.3883106   0.2452345  )
        10           Mg  tau(  10) = (   0.3332497   0.3879838   0.7314194  )
        11           Mg  tau(  11) = (   0.1628886   0.6739817   0.2456667  )
        12           Zn  tau(  12) = (   0.1628564   0.6739202   0.7314257  )
        13           Zn  tau(  13) = (   0.8333327   0.0922465   0.2454128  )
        14           Zn  tau(  14) = (   0.8336983   0.0947243   0.7309137  )
        15           Mg  tau(  15) = (   0.6638696   0.3804714   0.2443853  )
        16           Zn  tau(  16) = (   0.6641742   0.3817709   0.7306471  )
        17           Mg  tau(  17) = (   0.4992577   0.6743661   0.2484639  )
        18           Zn  tau(  18) = (   0.4998185   0.6743778   0.7282196  )
        19           Zn  tau(  19) = (   0.0006169   0.1925617   0.4879358  )
        20           Mg  tau(  20) = (   0.0012541   0.1924364   0.0026648  )
        21           Mg  tau(  21) = (  -0.1675967   0.4806618   0.4880721  )
        22           Mg  tau(  22) = (  -0.1665589   0.4807794   0.0023367  )
        23           Zn  tau(  23) = (  -0.3331196   0.7732918   0.4881816  )
        24           Mg  tau(  24) = (  -0.3327136   0.7733487   0.0019456  )
        25           Zn  tau(  25) = (   0.3342861   0.1952046   0.4906296  )
        26           Zn  tau(  26) = (   0.3341421   0.1949354   0.0015914  )
        27           Zn  tau(  27) = (   0.1645313   0.4819093   0.4905554  )
        28           Zn  tau(  28) = (   0.1641891   0.4805985   0.0046549  )
        29           Zn  tau(  29) = (  -0.0042298   0.7692656   0.4869789  )
        30           Zn  tau(  30) = (  -0.0039971   0.7694555   0.0026531  )
        31           Zn  tau(  31) = (   0.6675228   0.1901160   0.4886575  )
        32           Zn  tau(  32) = (   0.6678132   0.1892229   0.0039294  )
        33           Zn  tau(  33) = (   0.5017234   0.4822142   0.4863045  )
        34           Zn  tau(  34) = (   0.5017703   0.4830756   0.0040123  )
        35           Mg  tau(  35) = (   0.3311963   0.7701267   0.4864453  )
        36           Zn  tau(  36) = (   0.3320251   0.7686003   0.0030431  )
        37           O   tau(  37) = (   0.1684729   0.0978771   0.0030204  )
        38           O   tau(  38) = (   0.1679864   0.0980034   0.4878939  )
        39           O   tau(  39) = (  -0.0013606   0.3842666   0.0026814  )
        40           O   tau(  40) = (  -0.0011296   0.3846476   0.4880303  )
        41           O   tau(  41) = (  -0.1694920   0.6723248   0.0023530  )
        42           O   tau(  42) = (  -0.1699751   0.6725362   0.4881399  )
        43           O   tau(  43) = (   0.4994559   0.0951464   0.0017197  )
        44           O   tau(  44) = (   0.4993604   0.0950799   0.4905879  )
        45           O   tau(  45) = (   0.3336871   0.3878696   0.0016074  )
        46           O   tau(  46) = (   0.3331775   0.3880185   0.4905138  )
        47           O   tau(  47) = (   0.1643213   0.6741796   0.0046707  )
        48           O   tau(  48) = (   0.1638852   0.6746700   0.4869367  )
        49           O   tau(  49) = (   0.8347586   0.0936316   0.0024272  )
        50           O   tau(  50) = (   0.8345106   0.0950188   0.4886154  )
        51           O   tau(  51) = (   0.6665627   0.3824811   0.0039454  )
        52           O   tau(  52) = (   0.6660637   0.3826805   0.4862624  )
        53           O   tau(  53) = (   0.5002478   0.6756465   0.0040287  )
        54           O   tau(  54) = (   0.4994707   0.6753011   0.4864031  )
        55           O   tau(  55) = (   0.0000330   0.1913265   0.2441121  )
        56           O   tau(  56) = (   0.0007761   0.1919946   0.7336048  )
        57           O   tau(  57) = (  -0.1691392   0.4795793   0.2461127  )
        58           O   tau(  58) = (  -0.1684389   0.4800885   0.7305269  )
        59           O   tau(  59) = (  -0.3346292   0.7726639   0.2442367  )
        60           O   tau(  60) = (  -0.3340947   0.7731834   0.7323657  )
        61           O   tau(  61) = (   0.3352173   0.1956651   0.2458117  )
        62           O   tau(  62) = (   0.3357142   0.1957331   0.7305490  )
        63           O   tau(  63) = (   0.1653465   0.4814398   0.2452764  )
        64           O   tau(  64) = (   0.1656104   0.4820262   0.7314613  )
        65           O   tau(  65) = (  -0.0036262   0.7698802   0.2457085  )
        66           O   tau(  66) = (  -0.0027913   0.7701505   0.7314674  )
        67           O   tau(  67) = (   0.6666675   0.1884579   0.2454547  )
        68           O   tau(  68) = (   0.6668542   0.1900734   0.7309557  )
        69           O   tau(  69) = (   0.5009147   0.4821293   0.2444272  )
        70           O   tau(  70) = (   0.5010306   0.4826306   0.7306890  )
        71           O   tau(  71) = (   0.3310756   0.7673567   0.2485054  )
        72           O   tau(  72) = (   0.3314405   0.7686608   0.7282620  )

   Crystallographic axes

     site n.     atom                  positions (cryst. coord.)
         1           Zn  tau(   1) = (  0.2264497  0.1132463  0.2514431  )
         2           Zn  tau(   2) = (  0.2277727  0.1145952  0.7556696  )
         3           Zn  tau(   3) = (  0.2218364  0.4435577  0.2534438  )
         4           Zn  tau(   4) = (  0.2226479  0.4440639  0.7524385  )
         5           Zn  tau(   5) = (  0.2192839  0.7763689  0.2514509  )
         6           Zn  tau(   6) = (  0.2206018  0.7764547  0.7542726  )
         7           Zn  tau(   7) = (  0.5537371  0.1095572  0.2532635  )
         8           Mg  tau(   8) = (  0.5547638  0.1100844  0.7525909  )
         9           Zn  tau(   9) = (  0.5580096  0.4484286  0.2526520  )
        10           Mg  tau(  10) = (  0.5578970  0.4479886  0.7534706  )
        11           Mg  tau(  11) = (  0.5526371  0.7777903  0.2530369  )
        12           Zn  tau(  12) = (  0.5526705  0.7776562  0.7534168  )
        13           Zn  tau(  13) = (  0.8872694  0.1075207  0.2529659  )
        14           Zn  tau(  14) = (  0.8891688  0.1103169  0.7530797  )
        15           Mg  tau(  15) = (  0.8842965  0.4398302  0.2518471  )
        16           Zn  tau(  16) = (  0.8854539  0.4412668  0.7527449  )
        17           Mg  tau(  17) = (  0.8894564  0.7786870  0.2559887  )
        18           Zn  tau(  18) = (  0.8901243  0.7786389  0.7501846  )
        19           Zn  tau(  19) = (  0.1120271  0.2221044  0.5026057  )
        20           Mg  tau(  20) = (  0.1124911  0.2220238  0.0027287  )
        21           Mg  tau(  21) = (  0.1102325  0.5542714  0.5026860  )
        22           Mg  tau(  22) = (  0.1112377  0.5544715  0.0023306  )
        23           Zn  tau(  23) = (  0.1137490  0.8916684  0.5027389  )
        24           Mg  tau(  24) = (  0.1140867  0.8917977  0.0018678  )
        25           Zn  tau(  25) = (  0.4474502  0.2256033  0.5054502  )
        26           Zn  tau(  26) = (  0.4470485  0.2253559  0.0016924  )
        27           Zn  tau(  27) = (  0.4433067  0.5561583  0.5053135  )
        28           Zn  tau(  28) = (  0.4421054  0.5547086  0.0047879  )
        29           Zn  tau(  29) = (  0.4405336  0.8874668  0.5015692  )
        30           Zn  tau(  30) = (  0.4407752  0.8877491  0.0026657  )
        31           Zn  tau(  31) = (  0.7779704  0.2201819  0.5034888  )
        32           Zn  tau(  32) = (  0.7776438  0.2192148  0.0041711  )
        33           Zn  tau(  33) = (  0.7809022  0.5569653  0.5010052  )
        34           Zn  tau(  34) = (  0.7813466  0.5580218  0.0041964  )
        35           Mg  tau(  35) = (  0.7766842  0.8889127  0.5010896  )
        36           Zn  tau(  36) = (  0.7765305  0.8872155  0.0031378  )
        37           O   tau(  37) = (  0.2251642  0.1131520  0.0031382  )
        38           O   tau(  38) = (  0.2248514  0.1132341  0.5026057  )
        39           O   tau(  39) = (  0.2207597  0.4433432  0.0027286  )
        40           O   tau(  40) = (  0.2213123  0.4437201  0.5026861  )
        41           O   tau(  41) = (  0.2190231  0.7754621  0.0023303  )
        42           O   tau(  42) = (  0.2187632  0.7756422  0.5027387  )
        43           O   tau(  43) = (  0.5547923  0.1104478  0.0018678  )
        44           O   tau(  44) = (  0.5547603  0.1103076  0.5054504  )
        45           O   tau(  45) = (  0.5581165  0.4479521  0.0016922  )
        46           O   tau(  46) = (  0.5577946  0.4480597  0.5053139  )
        47           O   tau(  47) = (  0.5541349  0.7780518  0.0047874  )
        48           O   tau(  48) = (  0.5540825  0.7785544  0.5015690  )
        49           O   tau(  49) = (  0.8894464  0.1091522  0.0026669  )
        50           O   tau(  50) = (  0.8901014  0.1106893  0.5034887  )
        51           O   tau(  51) = (  0.8881030  0.4421837  0.0041706  )
        52           O   tau(  52) = (  0.8878194  0.4423505  0.5010047  )
        53           O   tau(  53) = (  0.8911364  0.7801973  0.0041963  )
        54           O   tau(  54) = (  0.8902596  0.7797351  0.5010895  )
        55           O   tau(  55) = (  0.1106779  0.2207102  0.2514431  )
        56           O   tau(  56) = (  0.1119098  0.2214185  0.7556691  )
        57           O   tau(  57) = (  0.1080128  0.5530519  0.2534436  )
        58           O   tau(  58) = (  0.1091088  0.5535774  0.7524383  )
        59           O   tau(  59) = (  0.1118245  0.8909737  0.2514512  )
        60           O   tau(  60) = (  0.1127615  0.8915104  0.7542724  )
        61           O   tau(  61) = (  0.4485972  0.2261676  0.2532636  )
        62           O   tau(  62) = (  0.4492347  0.2261838  0.7525911  )
        63           O   tau(  63) = (  0.4438000  0.5556495  0.2526520  )
        64           O   tau(  64) = (  0.4445044  0.5562633  0.7534705  )
        65           O   tau(  65) = (  0.4414426  0.8882081  0.2530369  )
        66           O   tau(  66) = (  0.4425356  0.8884580  0.7534167  )
        67           O   tau(  67) = (  0.7761054  0.2182993  0.2529659  )
        68           O   tau(  68) = (  0.7773273  0.2201004  0.7530798  )
        69           O   tau(  69) = (  0.7799935  0.5568977  0.2518474  )
        70           O   tau(  70) = (  0.7805007  0.5574131  0.7527452  )
        71           O   tau(  71) = (  0.7749126  0.8857476  0.2559882  )
        72           O   tau(  72) = (  0.7761317  0.8871904  0.7501850  )

     number of k points=    36  Marzari-Vanderbilt smearing, width (Ry)=  0.0010
                       cart. coord. in units 2pi/alat
        k(    1) = (   0.0000000   0.0000000   0.0000000), wk =   0.0312500
        k(    2) = (   0.0000523  -0.0000216   0.2575247), wk =   0.0625000
        k(    3) = (  -0.0001046   0.0000432  -0.5150495), wk =   0.0312500
        k(    4) = (   0.0003371   0.2884361  -0.0000324), wk =   0.0625000
        k(    5) = (   0.0003894   0.2884145   0.2574923), wk =   0.0625000
        k(    6) = (   0.0002325   0.2884792  -0.5150819), wk =   0.0625000
        k(    7) = (   0.0002848   0.2884576  -0.2575572), wk =   0.0625000
        k(    8) = (  -0.0006742  -0.5768721   0.0000649), wk =   0.0312500
        k(    9) = (  -0.0006219  -0.5768937   0.2575896), wk =   0.0625000
        k(   10) = (  -0.0007789  -0.5768290  -0.5149846), wk =   0.0312500
        k(   11) = (   0.2501691   0.1445095   0.0000521), wk =   0.0625000
        k(   12) = (   0.2502214   0.1444879   0.2575769), wk =   0.0625000
        k(   13) = (   0.2500644   0.1445527  -0.5149973), wk =   0.0625000
        k(   14) = (   0.2501168   0.1445311  -0.2574726), wk =   0.0625000
        k(   15) = (   0.2505062   0.4329456   0.0000197), wk =   0.0625000
        k(   16) = (   0.2505585   0.4329240   0.2575444), wk =   0.0625000
        k(   17) = (   0.2504015   0.4329887  -0.5150298), wk =   0.0625000
        k(   18) = (   0.2504539   0.4329671  -0.2575051), wk =   0.0625000
        k(   19) = (   0.2494949  -0.4323626   0.0001170), wk =   0.0625000
        k(   20) = (   0.2495472  -0.4323842   0.2576417), wk =   0.0625000
        k(   21) = (   0.2493902  -0.4323195  -0.5149324), wk =   0.0625000
        k(   22) = (   0.2494425  -0.4323410  -0.2574077), wk =   0.0625000
        k(   23) = (   0.2498320  -0.1439266   0.0000846), wk =   0.0625000
        k(   24) = (   0.2498843  -0.1439481   0.2576093), wk =   0.0625000
        k(   25) = (   0.2497273  -0.1438834  -0.5149649), wk =   0.0625000
        k(   26) = (   0.2497797  -0.1439050  -0.2574402), wk =   0.0625000
        k(   27) = (  -0.5003382  -0.2890190  -0.0001043), wk =   0.0312500
        k(   28) = (  -0.5002858  -0.2890406   0.2574205), wk =   0.0625000
        k(   29) = (  -0.5004428  -0.2889758  -0.5151537), wk =   0.0312500
        k(   30) = (  -0.5000011  -0.0005829  -0.0001367), wk =   0.0625000
        k(   31) = (  -0.4999487  -0.0006045   0.2573880), wk =   0.0625000
        k(   32) = (  -0.5001057  -0.0005398  -0.5151862), wk =   0.0625000
        k(   33) = (  -0.5000534  -0.0005614  -0.2576614), wk =   0.0625000
        k(   34) = (  -0.5010124  -0.8658911  -0.0000394), wk =   0.0312500
        k(   35) = (  -0.5009601  -0.8659127   0.2574854), wk =   0.0625000
        k(   36) = (  -0.5011170  -0.8658480  -0.5150888), wk =   0.0312500

                       cryst. coord.
        k(    1) = (   0.0000000   0.0000000   0.0000000), wk =   0.0312500
        k(    2) = (   0.0000000   0.0000000   0.2500000), wk =   0.0625000
        k(    3) = (  -0.0000000  -0.0000000  -0.5000000), wk =   0.0312500
        k(    4) = (  -0.0000000   0.2500000   0.0000000), wk =   0.0625000
        k(    5) = (  -0.0000000   0.2500000   0.2500000), wk =   0.0625000
        k(    6) = (  -0.0000000   0.2500000  -0.5000000), wk =   0.0625000
        k(    7) = (   0.0000000   0.2500000  -0.2500000), wk =   0.0625000
        k(    8) = (   0.0000000  -0.5000000  -0.0000000), wk =   0.0312500
        k(    9) = (   0.0000000  -0.5000000   0.2500000), wk =   0.0625000
        k(   10) = (   0.0000000  -0.5000000  -0.5000000), wk =   0.0312500
        k(   11) = (   0.2500000  -0.0000000  -0.0000000), wk =   0.0625000
        k(   12) = (   0.2500000   0.0000000   0.2500000), wk =   0.0625000
        k(   13) = (   0.2500000   0.0000000  -0.5000000), wk =   0.0625000
        k(   14) = (   0.2500000   0.0000000  -0.2500000), wk =   0.0625000
        k(   15) = (   0.2500000   0.2500000   0.0000000), wk =   0.0625000
        k(   16) = (   0.2500000   0.2500000   0.2500000), wk =   0.0625000
        k(   17) = (   0.2500000   0.2500000  -0.5000000), wk =   0.0625000
        k(   18) = (   0.2500000   0.2500000  -0.2500000), wk =   0.0625000
        k(   19) = (   0.2500000  -0.5000000   0.0000000), wk =   0.0625000
        k(   20) = (   0.2500000  -0.5000000   0.2500000), wk =   0.0625000
        k(   21) = (   0.2500000  -0.5000000  -0.5000000), wk =   0.0625000
        k(   22) = (   0.2500000  -0.5000000  -0.2500000), wk =   0.0625000
        k(   23) = (   0.2500000  -0.2500000   0.0000000), wk =   0.0625000
        k(   24) = (   0.2500000  -0.2500000   0.2500000), wk =   0.0625000
        k(   25) = (   0.2500000  -0.2500000  -0.5000000), wk =   0.0625000
        k(   26) = (   0.2500000  -0.2500000  -0.2500000), wk =   0.0625000
        k(   27) = (  -0.5000000   0.0000000   0.0000000), wk =   0.0312500
        k(   28) = (  -0.5000000   0.0000000   0.2500000), wk =   0.0625000
        k(   29) = (  -0.5000000  -0.0000000  -0.5000000), wk =   0.0312500
        k(   30) = (  -0.5000000   0.2500000  -0.0000000), wk =   0.0625000
        k(   31) = (  -0.5000000   0.2500000   0.2500000), wk =   0.0625000
        k(   32) = (  -0.5000000   0.2500000  -0.5000000), wk =   0.0625000
        k(   33) = (  -0.5000000   0.2500000  -0.2500000), wk =   0.0625000
        k(   34) = (  -0.5000000  -0.5000000  -0.0000000), wk =   0.0312500
        k(   35) = (  -0.5000000  -0.5000000   0.2500000), wk =   0.0625000
        k(   36) = (  -0.5000000  -0.5000000  -0.5000000), wk =   0.0312500

     Dense  grid:   989225 G-vectors     FFT dimensions: ( 135, 135, 128)

     Smooth grid:   328807 G-vectors     FFT dimensions: (  96,  96,  90)

     Dynamical RAM for                 wfc:      19.68 MB

     Dynamical RAM for     wfc (w. buffer):     118.07 MB

     Dynamical RAM for           str. fact:       2.83 MB

     Dynamical RAM for           local pot:       0.00 MB

     Dynamical RAM for          nlocal pot:      44.14 MB

     Dynamical RAM for                qrad:      20.99 MB

     Dynamical RAM for          rho,v,vnew:       6.17 MB

     Dynamical RAM for               rhoin:       2.06 MB

     Dynamical RAM for            rho*nmix:      15.09 MB

     Dynamical RAM for           G-vectors:       3.69 MB

     Dynamical RAM for          h,s,v(r/c):      46.14 MB

     Dynamical RAM for          <psi|beta>:       8.63 MB

     Dynamical RAM for                 psi:      78.71 MB

     Dynamical RAM for                hpsi:      78.71 MB

     Dynamical RAM for                spsi:      78.71 MB

     Dynamical RAM for      wfcinit/wfcrot:      48.19 MB

     Dynamical RAM for           addusdens:      29.24 MB

     Dynamical RAM for          addusforce:      50.19 MB

     Dynamical RAM for         addusstress:      26.36 MB

     Estimated static dynamical RAM per process >     222.38 MB

     Estimated max dynamical RAM per process >     513.28 MB

     Estimated total dynamical RAM >      64.16 GB

     Check: negative core charge=   -0.000002

     Initial potential from superposition of free atoms

     starting charge  832.99428, renormalised to  836.00000
     Starting wfcs are  532 randomized atomic wfcs

     total cpu time spent up to now is       17.0 secs

     Self-consistent Calculation

     iteration #  1     ecut=    60.00 Ry     beta= 0.50
     Davidson diagonalization with overlap
     ethr =  1.00E-02,  avg # of iterations =  4.9

     total cpu time spent up to now is       85.0 secs

     total energy              =  -14399.91231672 Ry
     Harris-Foulkes estimate   =  -14412.63576613 Ry
     estimated scf accuracy    <      19.23018780 Ry

     iteration #  2     ecut=    60.00 Ry     beta= 0.50
     Davidson diagonalization with overlap
     ethr =  2.30E-03,  avg # of iterations =  3.9

     total cpu time spent up to now is      170.2 secs

     total energy              =  -14405.63553067 Ry
     Harris-Foulkes estimate   =  -14409.73650135 Ry
     estimated scf accuracy    <       9.20188684 Ry

     iteration #  3     ecut=    60.00 Ry     beta= 0.50
     Davidson diagonalization with overlap
     ethr =  1.10E-03,  avg # of iterations =  2.1

     total cpu time spent up to now is      224.6 secs

     total energy              =  -14407.31937348 Ry
     Harris-Foulkes estimate   =  -14407.38001725 Ry
     estimated scf accuracy    <       0.17272498 Ry

     iteration #  4     ecut=    60.00 Ry     beta= 0.50
     Davidson diagonalization with overlap
     ethr =  2.07E-05,  avg # of iterations =  6.0

     total cpu time spent up to now is      329.4 secs

     total energy              =  -14407.33214217 Ry
     Harris-Foulkes estimate   =  -14407.35725571 Ry
     estimated scf accuracy    <       0.06857619 Ry

     iteration #  5     ecut=    60.00 Ry     beta= 0.50
     Davidson diagonalization with overlap
     ethr =  8.20E-06,  avg # of iterations =  5.1

     total cpu time spent up to now is      408.0 secs

     total energy              =  -14407.34365086 Ry
     Harris-Foulkes estimate   =  -14407.34501393 Ry
     estimated scf accuracy    <       0.00487961 Ry

     iteration #  6     ecut=    60.00 Ry     beta= 0.50
     Davidson diagonalization with overlap
     ethr =  5.84E-07,  avg # of iterations =  2.0

     total cpu time spent up to now is      454.1 secs

     total energy              =  -14407.34446283 Ry
     Harris-Foulkes estimate   =  -14407.34455464 Ry
     estimated scf accuracy    <       0.00034304 Ry

     iteration #  7     ecut=    60.00 Ry     beta= 0.50
     Davidson diagonalization with overlap
     ethr =  4.10E-08,  avg # of iterations =  2.0

     total cpu time spent up to now is      507.2 secs

     total energy              =  -14407.34454444 Ry
     Harris-Foulkes estimate   =  -14407.34455489 Ry
     estimated scf accuracy    <       0.00007451 Ry

     iteration #  8     ecut=    60.00 Ry     beta= 0.50
     Davidson diagonalization with overlap
     ethr =  8.91E-09,  avg # of iterations =  2.0

     total cpu time spent up to now is      552.1 secs

     total energy              =  -14407.34455992 Ry
     Harris-Foulkes estimate   =  -14407.34455876 Ry
     estimated scf accuracy    <       0.00001157 Ry

     iteration #  9     ecut=    60.00 Ry     beta= 0.50
     Davidson diagonalization with overlap
     ethr =  1.38E-09,  avg # of iterations =  2.0

     total cpu time spent up to now is      605.5 secs

     total energy              =  -14407.34456162 Ry
     Harris-Foulkes estimate   =  -14407.34456227 Ry
     estimated scf accuracy    <       0.00000193 Ry

     iteration # 10     ecut=    60.00 Ry     beta= 0.50
     Davidson diagonalization with overlap
     ethr =  2.30E-10,  avg # of iterations =  2.0

     total cpu time spent up to now is      659.7 secs

     total energy              =  -14407.34456204 Ry
     Harris-Foulkes estimate   =  -14407.34456206 Ry
     estimated scf accuracy    <       0.00000021 Ry

     iteration # 11     ecut=    60.00 Ry     beta= 0.50
     Davidson diagonalization with overlap
     ethr =  2.51E-11,  avg # of iterations =  2.0

     total cpu time spent up to now is      712.2 secs

     total energy              =  -14407.34456209 Ry
     Harris-Foulkes estimate   =  -14407.34456209 Ry
     estimated scf accuracy    <       0.00000004 Ry

     iteration # 12     ecut=    60.00 Ry     beta= 0.50
     Davidson diagonalization with overlap
     ethr =  4.33E-12,  avg # of iterations =  2.0

     total cpu time spent up to now is      759.0 secs

     End of self-consistent calculation

          k = 0.0000 0.0000 0.0000 ( 41073 PWs)   bands (ev):

  -113.9719-113.9700-113.9647-113.9629-113.9528-113.9366-113.9344-113.9328
  -113.9289-113.9285-113.9273-113.9237-113.9199-113.9198-113.9195-113.9193
  -113.9158-113.9139-113.9082-113.9005-113.8948-113.8939-113.8938-113.8935
  -113.8791-113.8723 -68.3881 -68.3837 -68.3816 -68.3790 -68.3727 -68.3585
   -68.3527 -68.3487 -68.3464 -68.3445 -68.3440 -68.3410 -68.3405 -68.3357
   -68.3337 -68.3332 -68.3320 -68.3304 -68.3246 -68.3190 -68.3167 -68.3141
   -68.3099 -68.3081 -68.3075 -68.3070 -68.3034 -68.3029 -68.3026 -68.3013
   -68.2978 -68.2959 -68.2949 -68.2938 -68.2929 -68.2751 -68.2750 -68.2675
   -68.2666 -68.2664 -68.2653 -68.2648 -68.2645 -68.2634 -68.2621 -68.2608
   -68.2595 -68.2590 -68.2581 -68.2579 -68.2570 -68.2569 -68.2533 -68.2530
   -68.2528 -68.2525 -68.2498 -68.2491 -68.2487 -68.2473 -68.2468 -68.2458
   -68.2456 -68.2366 -68.2341 -68.2320 -68.2314 -68.2297 -68.2285 -68.2276
   -68.2261 -68.2246 -68.2234 -68.2220 -68.2105 -68.2095 -68.2063 -68.1985
   -63.2804 -63.2658 -63.2399 -63.2123 -63.2114 -63.2063 -63.2054 -63.1865
   -63.1772 -63.1535 -30.3004 -30.2828 -30.2718 -30.2658 -30.2578 -30.2577
   -30.2540 -30.2382 -30.2294 -30.2267 -30.2251 -30.2236 -30.2235 -30.2087
   -30.2050 -30.2017 -30.1977 -30.1975 -30.1961 -30.1953 -30.1938 -30.1928
   -30.1883 -30.1732 -30.1728 -30.1710 -30.1676 -30.1621 -30.1399 -30.1375
    -9.1170  -8.6723  -8.6514  -8.5639  -8.5528  -8.5459  -8.5283  -8.4940
    -8.4642  -8.3182  -8.2888  -8.2730  -8.2681  -8.2498  -8.1932  -8.1725
    -8.1397  -8.0993  -8.0786  -8.0661  -8.0534  -8.0436  -8.0305  -7.9941
    -7.9789  -7.9197  -7.9098  -7.9031  -7.8761  -7.8456  -7.7927  -7.7736
    -7.6911  -7.6817  -7.6660  -7.6379   2.6808   2.7186   2.7393   2.7516
     2.7531   2.7592   2.7888   2.7994   2.8042   2.8272   2.8443   2.8500
     2.8992   2.9206   2.9815   3.0397   3.0562   3.0732   3.0846   3.1166
     3.1244   3.1422   3.1442   3.1732   3.1915   3.2135   3.2686   3.2791
     3.2879   3.3135   3.3523   3.4172   3.4387   3.4554   3.4815   3.5095
     3.5158   3.5502   3.5719   3.5809   3.5884   3.6105   3.6152   3.6211
     3.6242   3.6377   3.6419   3.6543   3.6601   3.6783   3.6858   3.6961
     3.7188   3.7241   3.7486   3.7682   3.7694   3.7835   3.7854   3.7938
     3.8066   3.8200   3.8493   3.8759   3.8947   3.9343   3.9547   3.9603
     4.0041   4.0084   4.0228   4.0293   4.0448   4.0663   4.0718   4.0904
     4.1184   4.1267   4.1597   4.1770   4.1811   4.1936   4.2098   4.2218
     4.2499   4.2562   4.2896   4.3001   4.3080   4.3230   4.3340   4.3735
     4.3887   4.4010   4.4285   4.4401   4.4582   4.4770   4.4972   4.5089
     4.5355   4.5428   4.5859   4.5926   4.6037   4.6257   4.6354   4.6562
     4.6838   4.6988   4.7112   4.7171   4.7289   4.7360   4.7663   4.7722
     4.7819   4.7924   4.8188   4.8234   4.8358   4.8506   4.8600   4.8680
     4.8790   4.9224   4.9326   4.9461   4.9717   5.0042   5.0528   5.0709
     5.0792   5.2758   5.3430   5.3608   5.3777   5.4067   5.4389   5.4763
     5.4984   5.5138   5.5422   5.5811   5.6029   5.6356   5.6554   5.7122
     5.7142   5.7566   5.7918   5.8551   5.8613   5.8950   5.9340   5.9751
     5.9905   6.0284   6.0850   6.1235   6.1330   6.1495   6.1622   6.1670
     6.2048   6.2510   6.2780   6.2962   6.3406   6.3555   6.4005   6.4427
     6.4641   6.4973   6.5797   6.5910   6.6811   6.7358   6.8403   6.9076
     7.0725   7.0826   7.1109   7.1954   7.2507   7.2708   7.3248   7.3341
     7.3417   7.3751   7.4281   7.4475   7.5097   7.5670   7.6093   7.6381
     7.6537   7.6706   7.7046   7.7213   7.7367   7.7666   7.8726   7.9073
     7.9687   8.0095   8.0181   8.0357   8.0606   8.0644   8.1032   8.1156
     8.1268   8.1297   8.1436   8.1539   8.1647   8.1763   8.1836   8.2393
     8.2574   8.3186   8.3762   8.4995   8.5115   8.5435   8.5857   8.6130
     8.7387   8.7566   8.8037   8.8358   8.8413   8.8490   8.8647   8.8743
     9.0749   9.0794  10.8240  13.5701  13.6241  14.0703  14.1228  14.1449
    14.2463  14.2705  14.3881  14.8915  15.0085  15.0370  15.0417  15.0620
    15.0717  15.0950  15.1163  15.1259  15.1616  15.2564  15.3146  15.5933
    16.8256  16.8571  17.0049  17.0872  17.1964  17.2179  17.2637  17.3027
    17.3353  17.4076  17.4261  17.5063  17.5158  17.5253  17.5423  17.5496
    17.6250  17.7009  17.7501  17.7777  17.8781  17.9280  17.9528  17.9834
    18.0195  18.0923  18.1136  18.1220  18.1712  18.1820  18.2553  18.3063
    18.3300  18.6039  18.6713  18.6898  18.6988  18.7106  18.7506  18.7570
    18.7858  19.1535  19.4730  19.4820  19.9648  20.0207  20.0333  20.0649
    20.0950  20.1138  20.1369  20.1625  20.2535  20.2790  20.3277  20.3703
    20.4120  20.4707  20.5059  20.5818  20.6236  20.6792

     occupation numbers 
     1.0000   1.0000   1.0000   1.0000   1.0000   1.0000   1.0000   1.0000
     1.0000   1.0000   1.0000   1.0000   1.0000   1.0000   1.0000   1.0000
     1.0000   1.0000   1.0000   1.0000   1.0000   1.0000   1.0000   1.0000
     1.0000   1.0000   1.0000   1.0000   1.0000   1.0000   1.0000   1.0000
     1.0000   1.0000   1.0000   1.0000   1.0000   1.0000   1.0000   1.0000
     1.0000   1.0000   1.0000   1.0000   1.0000   1.0000   1.0000   1.0000
     1.0000   1.0000   1.0000   1.0000   1.0000   1.0000   1.0000   1.0000
     1.0000   1.0000   1.0000   1.0000   1.0000   1.0000   1.0000   1.0000
     1.0000   1.0000   1.0000   1.0000   1.0000   1.0000   1.0000   1.0000
     1.0000   1.0000   1.0000   1.0000   1.0000   1.0000   1.0000   1.0000
     1.0000   1.0000   1.0000   1.0000   1.0000   1.0000   1.0000   1.0000
     1.0000   1.0000   1.0000   1.0000   1.0000   1.0000   1.0000   1.0000
     1.0000   1.0000   1.0000   1.0000   1.0000   1.0000   1.0000   1.0000
     1.0000   1.0000   1.0000   1.0000   1.0000   1.0000   1.0000   1.0000
     1.0000   1.0000   1.0000   1.0000   1.0000   1.0000   1.0000   1.0000
     1.0000   1.0000   1.0000   1.0000   1.0000   1.0000   1.0000   1.0000
     1.0000   1.0000   1.0000   1.0000   1.0000   1.0000   1.0000   1.0000
     1.0000   1.0000   1.0000   1.0000   1.0000   1.0000   1.0000   1.0000
     1.0000   1.0000   1.0000   1.0000   1.0000   1.0000   1.0000   1.0000
     1.0000   1.0000   1.0000   1.0000   1.0000   1.0000   1.0000   1.0000
     1.0000   1.0000   1.0000   1.0000   1.0000   1.0000   1.0000   1.0000
     1.0000   1.0000   1.0000   1.0000   1.0000   1.0000   1.0000   1.0000
     1.0000   1.0000   1.0000   1.0000   1.0000   1.0000   1.0000   1.0000
     1.0000   1.0000   1.0000   1.0000   1.0000   1.0000   1.0000   1.0000
     1.0000   1.0000   1.0000   1.0000   1.0000   1.0000   1.0000   1.0000
     1.0000   1.0000   1.0000   1.0000   1.0000   1.0000   1.0000   1.0000
     1.0000   1.0000   1.0000   1.0000   1.0000   1.0000   1.0000   1.0000
     1.0000   1.0000   1.0000   1.0000   1.0000   1.0000   1.0000   1.0000
     1.0000   1.0000   1.0000   1.0000   1.0000   1.0000   1.0000   1.0000
     1.0000   1.0000   1.0000   1.0000   1.0000   1.0000   1.0000   1.0000
     1.0000   1.0000   1.0000   1.0000   1.0000   1.0000   1.0000   1.0000
     1.0000   1.0000   1.0000   1.0000   1.0000   1.0000   1.0000   1.0000
     1.0000   1.0000   1.0000   1.0000   1.0000   1.0000   1.0000   1.0000
     1.0000   1.0000   1.0000   1.0000   1.0000   1.0000   1.0000   1.0000
     1.0000   1.0000   1.0000   1.0000   1.0000   1.0000   1.0000   1.0000
     1.0000   1.0000   1.0000   1.0000   1.0000   1.0000   1.0000   1.0000
     1.0000   1.0000   1.0000   1.0000   1.0000   1.0000   1.0000   1.0000
     1.0000   1.0000   1.0000   1.0000   1.0000   1.0000   1.0000   1.0000
     1.0000   1.0000   1.0000   1.0000   1.0000   1.0000   1.0000   1.0000
     1.0000   1.0000   1.0000   1.0000   1.0000   1.0000   1.0000   1.0000
     1.0000   1.0000   1.0000   1.0000   1.0000   1.0000   1.0000   1.0000
     1.0000   1.0000   1.0000   1.0000   1.0000   1.0000   1.0000   1.0000
     1.0000   1.0000   1.0000   1.0000   1.0000   1.0000   1.0000   1.0000
     1.0000   1.0000   1.0000   1.0000   1.0000   1.0000   1.0000   1.0000
     1.0000   1.0000   1.0000   1.0000   1.0000   1.0000   1.0000   1.0000
     1.0000   1.0000   1.0000   1.0000   1.0000   1.0000   1.0000   1.0000
     1.0000   1.0000   1.0000   1.0000   1.0000   1.0000   1.0000   1.0000
     1.0000   1.0000   1.0000   1.0000   1.0000   1.0000   1.0000   1.0000
     1.0000   1.0000   1.0000   1.0000   1.0000   1.0000   1.0000   1.0000
     1.0000   1.0000   1.0000   1.0000   1.0000   1.0000   1.0000   1.0000
     1.0000   1.0000   1.0000   1.0000   1.0000   1.0000   1.0000   1.0000
     1.0000   1.0000   1.0000   1.0000   1.0000   1.0000   1.0000   1.0000
     1.0000   1.0000   0.0000   0.0000   0.0000   0.0000   0.0000   0.0000
     0.0000   0.0000   0.0000   0.0000   0.0000   0.0000   0.0000   0.0000
     0.0000   0.0000   0.0000   0.0000   0.0000   0.0000   0.0000   0.0000
     0.0000   0.0000   0.0000   0.0000   0.0000   0.0000   0.0000   0.0000
     0.0000   0.0000   0.0000   0.0000   0.0000   0.0000   0.0000   0.0000
     0.0000   0.0000   0.0000   0.0000   0.0000   0.0000   0.0000   0.0000
     0.0000   0.0000   0.0000   0.0000   0.0000   0.0000   0.0000   0.0000
     0.0000   0.0000   0.0000   0.0000   0.0000   0.0000   0.0000   0.0000
     0.0000   0.0000   0.0000   0.0000   0.0000   0.0000   0.0000   0.0000
     0.0000   0.0000   0.0000   0.0000   0.0000   0.0000   0.0000   0.0000
     0.0000   0.0000   0.0000   0.0000   0.0000   0.0000

          k = 0.0001-0.0000 0.2575 ( 41118 PWs)   bands (ev):

  -113.9719-113.9700-113.9647-113.9629-113.9528-113.9366-113.9344-113.9328
  -113.9289-113.9285-113.9273-113.9237-113.9199-113.9198-113.9195-113.9193
  -113.9158-113.9139-113.9082-113.9005-113.8948-113.8939-113.8938-113.8935
  -113.8791-113.8723 -68.3881 -68.3837 -68.3816 -68.3790 -68.3727 -68.3585
   -68.3527 -68.3487 -68.3464 -68.3445 -68.3440 -68.3410 -68.3405 -68.3356
   -68.3337 -68.3332 -68.3320 -68.3304 -68.3246 -68.3190 -68.3167 -68.3141
   -68.3099 -68.3081 -68.3075 -68.3070 -68.3034 -68.3029 -68.3026 -68.3013
   -68.2978 -68.2959 -68.2949 -68.2938 -68.2929 -68.2751 -68.2750 -68.2675
   -68.2666 -68.2664 -68.2653 -68.2648 -68.2645 -68.2634 -68.2621 -68.2608
   -68.2595 -68.2590 -68.2581 -68.2579 -68.2570 -68.2569 -68.2533 -68.2530
   -68.2528 -68.2525 -68.2498 -68.2491 -68.2487 -68.2473 -68.2468 -68.2458
   -68.2456 -68.2366 -68.2341 -68.2320 -68.2314 -68.2297 -68.2285 -68.2276
   -68.2261 -68.2246 -68.2234 -68.2220 -68.2105 -68.2095 -68.2063 -68.1985
   -63.2804 -63.2658 -63.2399 -63.2123 -63.2114 -63.2063 -63.2054 -63.1865
   -63.1772 -63.1535 -30.3004 -30.2828 -30.2718 -30.2658 -30.2578 -30.2577
   -30.2540 -30.2382 -30.2294 -30.2267 -30.2251 -30.2236 -30.2235 -30.2087
   -30.2050 -30.2017 -30.1977 -30.1975 -30.1961 -30.1953 -30.1938 -30.1928
   -30.1883 -30.1732 -30.1728 -30.1710 -30.1676 -30.1621 -30.1399 -30.1375
    -9.0811  -8.8124  -8.5868  -8.5486  -8.5303  -8.5231  -8.5151  -8.4636
    -8.4420  -8.3676  -8.3572  -8.3068  -8.2827  -8.2710  -8.2127  -8.1652
    -8.1332  -8.0669  -8.0631  -8.0479  -8.0368  -8.0215  -7.9978  -7.9794
    -7.9624  -7.9289  -7.9126  -7.9052  -7.8812  -7.8588  -7.7969  -7.7770
    -7.6991  -7.6855  -7.6714  -7.6429   2.6650   2.7014   2.7260   2.7385
     2.7573   2.7802   2.7904   2.8037   2.8369   2.8612   2.8806   2.8926
     2.9290   2.9416   3.0055   3.0425   3.0717   3.0815   3.0886   3.1180
     3.1256   3.1490   3.1553   3.1872   3.1983   3.2156   3.2563   3.2786
     3.2914   3.3327   3.3675   3.4130   3.4373   3.4560   3.4711   3.5070
     3.5181   3.5506   3.5660   3.5768   3.5861   3.6024   3.6118   3.6231
     3.6387   3.6468   3.6515   3.6603   3.6681   3.6821   3.6882   3.7043
     3.7201   3.7362   3.7448   3.7586   3.7651   3.7704   3.7823   3.7841
     3.8046   3.8229   3.8290   3.8438   3.8619   3.8881   3.9070   3.9337
     3.9465   3.9561   3.9643   3.9796   4.0067   4.0596   4.0713   4.0894
     4.1002   4.1178   4.1319   4.1529   4.1708   4.1904   4.1966   4.2195
     4.2449   4.2570   4.2785   4.2916   4.3053   4.3182   4.3261   4.3402
     4.3751   4.3872   4.4366   4.4565   4.4742   4.5023   4.5072   4.5214
     4.5401   4.5677   4.5935   4.6146   4.6238   4.6308   4.6509   4.6577
     4.6828   4.6933   4.7106   4.7159   4.7284   4.7421   4.7525   4.7738
     4.7891   4.7958   4.8114   4.8290   4.8339   4.8521   4.8583   4.8814
     4.8940   4.9219   4.9343   4.9513   4.9793   5.0055   5.0539   5.0589
     5.1542   5.1897   5.2041   5.3040   5.3631   5.4043   5.4268   5.4460
     5.4950   5.5494   5.5736   5.5838   5.6050   5.6228   5.6303   5.6567
     5.6945   5.7392   5.7649   5.8320   5.8510   5.8661   5.9019   5.9486
     5.9694   6.0543   6.0710   6.1072   6.1408   6.1718   6.1932   6.2090
     6.2772   6.3367   6.3521   6.3999   6.4147   6.4537   6.4777   6.5179
     6.5588   6.5855   6.6101   6.6358   6.6977   6.7435   6.8031   7.0114
     7.0815   7.1052   7.1419   7.1768   7.2569   7.2694   7.3402   7.3645
     7.4150   7.4374   7.4724   7.5069   7.5336   7.5525   7.5706   7.5932
     7.5974   7.6731   7.7107   7.7416   7.7570   7.7852   7.8046   7.8240
     7.8506   7.8530   7.8787   7.9403   7.9626   8.0134   8.0581   8.0740
     8.0997   8.1257   8.1614   8.1749   8.2024   8.2323   8.2472   8.2668
     8.3533   8.4192   8.4739   8.4924   8.5249   8.5538   8.5940   8.6078
     8.6266   8.6796   8.7171   8.7316   8.7661   8.7935   8.9308   8.9397
     9.0642   9.0674  11.1537  12.7848  14.0345  14.1176  14.1390  14.1849
    14.2547  14.3064  14.3889  14.5285  14.5547  14.5952  14.6537  14.7499
    14.8404  15.2743  15.6712  15.6941  15.7165  15.7313  15.8193  15.8913
    16.7329  16.7638  16.8328  16.8648  16.9809  17.1163  17.2412  17.2456
    17.3526  17.4030  17.4100  17.4347  17.4894  17.5010  17.5594  17.6055
    17.6444  17.6793  17.6960  17.7530  17.8986  17.9385  17.9693  17.9859
    18.0490  18.0905  18.1074  18.1731  18.2099  18.2506  18.2743  18.3197
    18.3607  18.4910  18.5335  18.5896  18.6148  18.7306  18.7517  18.7933
    18.8207  19.0781  19.2652  19.4726  19.5866  19.7137  19.7631  19.8716
    19.9623  20.0133  20.0506  20.1598  20.2029  20.2866  20.3614  20.4543
    20.5327  20.5595  20.6318  20.6683  20.7523  20.7853

     occupation numbers 
     1.0000   1.0000   1.0000   1.0000   1.0000   1.0000   1.0000   1.0000
     1.0000   1.0000   1.0000   1.0000   1.0000   1.0000   1.0000   1.0000
     1.0000   1.0000   1.0000   1.0000   1.0000   1.0000   1.0000   1.0000
     1.0000   1.0000   1.0000   1.0000   1.0000   1.0000   1.0000   1.0000
     1.0000   1.0000   1.0000   1.0000   1.0000   1.0000   1.0000   1.0000
     1.0000   1.0000   1.0000   1.0000   1.0000   1.0000   1.0000   1.0000
     1.0000   1.0000   1.0000   1.0000   1.0000   1.0000   1.0000   1.0000
     1.0000   1.0000   1.0000   1.0000   1.0000   1.0000   1.0000   1.0000
     1.0000   1.0000   1.0000   1.0000   1.0000   1.0000   1.0000   1.0000
     1.0000   1.0000   1.0000   1.0000   1.0000   1.0000   1.0000   1.0000
     1.0000   1.0000   1.0000   1.0000   1.0000   1.0000   1.0000   1.0000
     1.0000   1.0000   1.0000   1.0000   1.0000   1.0000   1.0000   1.0000
     1.0000   1.0000   1.0000   1.0000   1.0000   1.0000   1.0000   1.0000
     1.0000   1.0000   1.0000   1.0000   1.0000   1.0000   1.0000   1.0000
     1.0000   1.0000   1.0000   1.0000   1.0000   1.0000   1.0000   1.0000
     1.0000   1.0000   1.0000   1.0000   1.0000   1.0000   1.0000   1.0000
     1.0000   1.0000   1.0000   1.0000   1.0000   1.0000   1.0000   1.0000
     1.0000   1.0000   1.0000   1.0000   1.0000   1.0000   1.0000   1.0000
     1.0000   1.0000   1.0000   1.0000   1.0000   1.0000   1.0000   1.0000
     1.0000   1.0000   1.0000   1.0000   1.0000   1.0000   1.0000   1.0000
     1.0000   1.0000   1.0000   1.0000   1.0000   1.0000   1.0000   1.0000
     1.0000   1.0000   1.0000   1.0000   1.0000   1.0000   1.0000   1.0000
     1.0000   1.0000   1.0000   1.0000   1.0000   1.0000   1.0000   1.0000
     1.0000   1.0000   1.0000   1.0000   1.0000   1.0000   1.0000   1.0000
     1.0000   1.0000   1.0000   1.0000   1.0000   1.0000   1.0000   1.0000
     1.0000   1.0000   1.0000   1.0000   1.0000   1.0000   1.0000   1.0000
     1.0000   1.0000   1.0000   1.0000   1.0000   1.0000   1.0000   1.0000
     1.0000   1.0000   1.0000   1.0000   1.0000   1.0000   1.0000   1.0000
     1.0000   1.0000   1.0000   1.0000   1.0000   1.0000   1.0000   1.0000
     1.0000   1.0000   1.0000   1.0000   1.0000   1.0000   1.0000   1.0000
     1.0000   1.0000   1.0000   1.0000   1.0000   1.0000   1.0000   1.0000
     1.0000   1.0000   1.0000   1.0000   1.0000   1.0000   1.0000   1.0000
     1.0000   1.0000   1.0000   1.0000   1.0000   1.0000   1.0000   1.0000
     1.0000   1.0000   1.0000   1.0000   1.0000   1.0000   1.0000   1.0000
     1.0000   1.0000   1.0000   1.0000   1.0000   1.0000   1.0000   1.0000
     1.0000   1.0000   1.0000   1.0000   1.0000   1.0000   1.0000   1.0000
     1.0000   1.0000   1.0000   1.0000   1.0000   1.0000   1.0000   1.0000
     1.0000   1.0000   1.0000   1.0000   1.0000   1.0000   1.0000   1.0000
     1.0000   1.0000   1.0000   1.0000   1.0000   1.0000   1.0000   1.0000
     1.0000   1.0000   1.0000   1.0000   1.0000   1.0000   1.0000   1.0000
     1.0000   1.0000   1.0000   1.0000   1.0000   1.0000   1.0000   1.0000
     1.0000   1.0000   1.0000   1.0000   1.0000   1.0000   1.0000   1.0000
     1.0000   1.0000   1.0000   1.0000   1.0000   1.0000   1.0000   1.0000
     1.0000   1.0000   1.0000   1.0000   1.0000   1.0000   1.0000   1.0000
     1.0000   1.0000   1.0000   1.0000   1.0000   1.0000   1.0000   1.0000
     1.0000   1.0000   1.0000   1.0000   1.0000   1.0000   1.0000   1.0000
     1.0000   1.0000   1.0000   1.0000   1.0000   1.0000   1.0000   1.0000
     1.0000   1.0000   1.0000   1.0000   1.0000   1.0000   1.0000   1.0000
     1.0000   1.0000   1.0000   1.0000   1.0000   1.0000   1.0000   1.0000
     1.0000   1.0000   1.0000   1.0000   1.0000   1.0000   1.0000   1.0000
     1.0000   1.0000   1.0000   1.0000   1.0000   1.0000   1.0000   1.0000
     1.0000   1.0000   1.0000   1.0000   1.0000   1.0000   1.0000   1.0000
     1.0000   1.0000   0.0000   0.0000   0.0000   0.0000   0.0000   0.0000
     0.0000   0.0000   0.0000   0.0000   0.0000   0.0000   0.0000   0.0000
     0.0000   0.0000   0.0000   0.0000   0.0000   0.0000   0.0000   0.0000
     0.0000   0.0000   0.0000   0.0000   0.0000   0.0000   0.0000   0.0000
     0.0000   0.0000   0.0000   0.0000   0.0000   0.0000   0.0000   0.0000
     0.0000   0.0000   0.0000   0.0000   0.0000   0.0000   0.0000   0.0000
     0.0000   0.0000   0.0000   0.0000   0.0000   0.0000   0.0000   0.0000
     0.0000   0.0000   0.0000   0.0000   0.0000   0.0000   0.0000   0.0000
     0.0000   0.0000   0.0000   0.0000   0.0000   0.0000   0.0000   0.0000
     0.0000   0.0000   0.0000   0.0000   0.0000   0.0000   0.0000   0.0000
     0.0000   0.0000   0.0000   0.0000   0.0000   0.0000

          k =-0.0001 0.0000-0.5150 ( 41104 PWs)   bands (ev):

  -113.9719-113.9700-113.9647-113.9629-113.9528-113.9366-113.9344-113.9328
  -113.9289-113.9285-113.9273-113.9237-113.9199-113.9198-113.9195-113.9193
  -113.9158-113.9139-113.9082-113.9005-113.8948-113.8939-113.8938-113.8935
  -113.8791-113.8723 -68.3881 -68.3837 -68.3816 -68.3790 -68.3727 -68.3585
   -68.3527 -68.3487 -68.3464 -68.3445 -68.3440 -68.3410 -68.3405 -68.3356
   -68.3337 -68.3332 -68.3320 -68.3304 -68.3246 -68.3190 -68.3167 -68.3141
   -68.3099 -68.3081 -68.3075 -68.3070 -68.3034 -68.3029 -68.3026 -68.3013
   -68.2978 -68.2959 -68.2949 -68.2938 -68.2929 -68.2751 -68.2750 -68.2675
   -68.2666 -68.2664 -68.2653 -68.2648 -68.2645 -68.2634 -68.2621 -68.2608
   -68.2595 -68.2590 -68.2581 -68.2579 -68.2570 -68.2569 -68.2533 -68.2530
   -68.2528 -68.2525 -68.2498 -68.2490 -68.2487 -68.2473 -68.2468 -68.2458
   -68.2456 -68.2366 -68.2341 -68.2320 -68.2314 -68.2297 -68.2285 -68.2276
   -68.2261 -68.2246 -68.2234 -68.2220 -68.2105 -68.2095 -68.2063 -68.1985
   -63.2804 -63.2658 -63.2399 -63.2123 -63.2114 -63.2063 -63.2054 -63.1865
   -63.1772 -63.1535 -30.3004 -30.2828 -30.2718 -30.2658 -30.2578 -30.2577
   -30.2540 -30.2382 -30.2294 -30.2267 -30.2251 -30.2236 -30.2235 -30.2087
   -30.2050 -30.2017 -30.1977 -30.1975 -30.1961 -30.1953 -30.1938 -30.1928
   -30.1883 -30.1732 -30.1728 -30.1710 -30.1676 -30.1621 -30.1399 -30.1375
    -9.0054  -8.9358  -8.5502  -8.5311  -8.5001  -8.4867  -8.4741  -8.4699
    -8.4480  -8.4395  -8.3843  -8.3426  -8.3354  -8.2862  -8.2076  -8.1427
    -8.1124  -8.0670  -8.0509  -8.0424  -8.0260  -8.0033  -7.9733  -7.9611
    -7.9383  -7.9200  -7.9138  -7.9078  -7.8909  -7.8837  -7.8045  -7.7757
    -7.7088  -7.6890  -7.6775  -7.6484   2.6583   2.6955   2.7198   2.7376
     2.7563   2.7829   2.7892   2.8117   2.8499   2.8884   2.9136   2.9551
     2.9671   2.9913   3.0300   3.0357   3.0690   3.0867   3.1019   3.1190
     3.1263   3.1414   3.1697   3.1913   3.2061   3.2122   3.2470   3.2656
     3.3061   3.3371   3.3858   3.3944   3.4305   3.4910   3.4962   3.5205
     3.5427   3.5438   3.5528   3.5681   3.5757   3.5885   3.6151   3.6177
     3.6203   3.6373   3.6423   3.6559   3.6730   3.6922   3.7030   3.7154
     3.7250   3.7305   3.7400   3.7479   3.7600   3.7751   3.7848   3.7942
     3.7999   3.8173   3.8308   3.8334   3.8445   3.8635   3.8810   3.8953
     3.9042   3.9223   3.9484   3.9589   3.9756   3.9861   4.0234   4.0371
     4.0680   4.0823   4.1162   4.1269   4.1408   4.1621   4.1717   4.1886
     4.2308   4.2544   4.2902   4.2921   4.3019   4.3213   4.3340   4.3548
     4.3775   4.3995   4.4236   4.4554   4.4755   4.5172   4.5271   4.5437
     4.5476   4.5826   4.6094   4.6134   4.6284   4.6391   4.6706   4.6782
     4.6951   4.6976   4.7001   4.7202   4.7278   4.7360   4.7499   4.7727
     4.7879   4.7925   4.8098   4.8239   4.8338   4.8495   4.8662   4.8976
     4.9177   4.9381   4.9459   4.9722   4.9868   5.0131   5.0331   5.0550
     5.0695   5.0819   5.2391   5.3266   5.3580   5.3881   5.4029   5.4579
     5.4994   5.5260   5.5446   5.5664   5.5759   5.6009   5.6212   5.6520
     5.6709   5.7745   5.8010   5.8160   5.8581   5.8720   5.8845   5.9316
     5.9781   5.9947   6.0418   6.0799   6.1152   6.1309   6.1556   6.2022
     6.2932   6.3557   6.3927   6.4065   6.4357   6.4582   6.5886   6.6445
     6.7224   6.7722   6.7930   6.8026   6.9132   6.9401   6.9843   7.0463
     7.0891   7.1025   7.1358   7.1770   7.1892   7.2450   7.2763   7.2799
     7.3319   7.3514   7.3696   7.3773   7.4377   7.4402   7.4742   7.4917
     7.6051   7.6516   7.7328   7.7636   7.8150   7.8250   7.8476   7.8748
     7.8875   7.9347   7.9690   7.9806   7.9995   8.0044   8.0205   8.0352
     8.0548   8.0883   8.1154   8.1469   8.1701   8.2112   8.2426   8.3464
     8.3840   8.4355   8.4628   8.4851   8.5198   8.5413   8.5486   8.5670
     8.5987   8.6168   8.6610   8.6863   8.7104   8.7200   8.9737   8.9888
     9.0425   9.0477  11.8631  11.9494  14.1282  14.1878  14.2011  14.2343
    14.2463  14.2651  14.2779  14.3262  14.3562  14.4172  14.4593  14.6250
    14.9381  15.2111  16.2444  16.2597  16.2920  16.3053  16.3491  16.3538
    16.3680  16.4051  16.4196  16.5080  16.5164  16.5898  17.2682  17.2895
    17.3249  17.3382  17.4255  17.4360  17.4615  17.5105  17.5196  17.5678
    17.6608  17.6991  17.7989  17.8205  17.9067  17.9284  18.0374  18.0576
    18.0663  18.0953  18.1454  18.1846  18.2162  18.2431  18.2870  18.3115
    18.3664  18.4120  18.4204  18.4308  18.6784  18.7097  18.7390  18.8549
    18.9151  18.9777  19.1482  19.1991  19.2729  19.5309  19.5567  19.7349
    19.9192  20.0546  20.1165  20.1450  20.2679  20.3348  20.3995  20.4285
    20.4568  20.5172  20.5403  20.5584  20.8137  20.8328

     occupation numbers 
     1.0000   1.0000   1.0000   1.0000   1.0000   1.0000   1.0000   1.0000
     1.0000   1.0000   1.0000   1.0000   1.0000   1.0000   1.0000   1.0000
     1.0000   1.0000   1.0000   1.0000   1.0000   1.0000   1.0000   1.0000
     1.0000   1.0000   1.0000   1.0000   1.0000   1.0000   1.0000   1.0000
     1.0000   1.0000   1.0000   1.0000   1.0000   1.0000   1.0000   1.0000
     1.0000   1.0000   1.0000   1.0000   1.0000   1.0000   1.0000   1.0000
     1.0000   1.0000   1.0000   1.0000   1.0000   1.0000   1.0000   1.0000
     1.0000   1.0000   1.0000   1.0000   1.0000   1.0000   1.0000   1.0000
     1.0000   1.0000   1.0000   1.0000   1.0000   1.0000   1.0000   1.0000
     1.0000   1.0000   1.0000   1.0000   1.0000   1.0000   1.0000   1.0000
     1.0000   1.0000   1.0000   1.0000   1.0000   1.0000   1.0000   1.0000
     1.0000   1.0000   1.0000   1.0000   1.0000   1.0000   1.0000   1.0000
     1.0000   1.0000   1.0000   1.0000   1.0000   1.0000   1.0000   1.0000
     1.0000   1.0000   1.0000   1.0000   1.0000   1.0000   1.0000   1.0000
     1.0000   1.0000   1.0000   1.0000   1.0000   1.0000   1.0000   1.0000
     1.0000   1.0000   1.0000   1.0000   1.0000   1.0000   1.0000   1.0000
     1.0000   1.0000   1.0000   1.0000   1.0000   1.0000   1.0000   1.0000
     1.0000   1.0000   1.0000   1.0000   1.0000   1.0000   1.0000   1.0000
     1.0000   1.0000   1.0000   1.0000   1.0000   1.0000   1.0000   1.0000
     1.0000   1.0000   1.0000   1.0000   1.0000   1.0000   1.0000   1.0000
     1.0000   1.0000   1.0000   1.0000   1.0000   1.0000   1.0000   1.0000
     1.0000   1.0000   1.0000   1.0000   1.0000   1.0000   1.0000   1.0000
     1.0000   1.0000   1.0000   1.0000   1.0000   1.0000   1.0000   1.0000
     1.0000   1.0000   1.0000   1.0000   1.0000   1.0000   1.0000   1.0000
     1.0000   1.0000   1.0000   1.0000   1.0000   1.0000   1.0000   1.0000
     1.0000   1.0000   1.0000   1.0000   1.0000   1.0000   1.0000   1.0000
     1.0000   1.0000   1.0000   1.0000   1.0000   1.0000   1.0000   1.0000
     1.0000   1.0000   1.0000   1.0000   1.0000   1.0000   1.0000   1.0000
     1.0000   1.0000   1.0000   1.0000   1.0000   1.0000   1.0000   1.0000
     1.0000   1.0000   1.0000   1.0000   1.0000   1.0000   1.0000   1.0000
     1.0000   1.0000   1.0000   1.0000   1.0000   1.0000   1.0000   1.0000
     1.0000   1.0000   1.0000   1.0000   1.0000   1.0000   1.0000   1.0000
     1.0000   1.0000   1.0000   1.0000   1.0000   1.0000   1.0000   1.0000
     1.0000   1.0000   1.0000   1.0000   1.0000   1.0000   1.0000   1.0000
     1.0000   1.0000   1.0000   1.0000   1.0000   1.0000   1.0000   1.0000
     1.0000   1.0000   1.0000   1.0000   1.0000   1.0000   1.0000   1.0000
     1.0000   1.0000   1.0000   1.0000   1.0000   1.0000   1.0000   1.0000
     1.0000   1.0000   1.0000   1.0000   1.0000   1.0000   1.0000   1.0000
     1.0000   1.0000   1.0000   1.0000   1.0000   1.0000   1.0000   1.0000
     1.0000   1.0000   1.0000   1.0000   1.0000   1.0000   1.0000   1.0000
     1.0000   1.0000   1.0000   1.0000   1.0000   1.0000   1.0000   1.0000
     1.0000   1.0000   1.0000   1.0000   1.0000   1.0000   1.0000   1.0000
     1.0000   1.0000   1.0000   1.0000   1.0000   1.0000   1.0000   1.0000
     1.0000   1.0000   1.0000   1.0000   1.0000   1.0000   1.0000   1.0000
     1.0000   1.0000   1.0000   1.0000   1.0000   1.0000   1.0000   1.0000
     1.0000   1.0000   1.0000   1.0000   1.0000   1.0000   1.0000   1.0000
     1.0000   1.0000   1.0000   1.0000   1.0000   1.0000   1.0000   1.0000
     1.0000   1.0000   1.0000   1.0000   1.0000   1.0000   1.0000   1.0000
     1.0000   1.0000   1.0000   1.0000   1.0000   1.0000   1.0000   1.0000
     1.0000   1.0000   1.0000   1.0000   1.0000   1.0000   1.0000   1.0000
     1.0000   1.0000   1.0000   1.0000   1.0000   1.0000   1.0000   1.0000
     1.0000   1.0000   1.0000   1.0000   1.0000   1.0000   1.0000   1.0000
     1.0000   1.0000   0.0000   0.0000   0.0000   0.0000   0.0000   0.0000
     0.0000   0.0000   0.0000   0.0000   0.0000   0.0000   0.0000   0.0000
     0.0000   0.0000   0.0000   0.0000   0.0000   0.0000   0.0000   0.0000
     0.0000   0.0000   0.0000   0.0000   0.0000   0.0000   0.0000   0.0000
     0.0000   0.0000   0.0000   0.0000   0.0000   0.0000   0.0000   0.0000
     0.0000   0.0000   0.0000   0.0000   0.0000   0.0000   0.0000   0.0000
     0.0000   0.0000   0.0000   0.0000   0.0000   0.0000   0.0000   0.0000
     0.0000   0.0000   0.0000   0.0000   0.0000   0.0000   0.0000   0.0000
     0.0000   0.0000   0.0000   0.0000   0.0000   0.0000   0.0000   0.0000
     0.0000   0.0000   0.0000   0.0000   0.0000   0.0000   0.0000   0.0000
     0.0000   0.0000   0.0000   0.0000   0.0000   0.0000

          k = 0.0003 0.2884-0.0000 ( 41134 PWs)   bands (ev):

  -113.9719-113.9700-113.9647-113.9629-113.9528-113.9366-113.9344-113.9328
  -113.9289-113.9285-113.9273-113.9237-113.9199-113.9198-113.9195-113.9193
  -113.9158-113.9139-113.9082-113.9005-113.8948-113.8939-113.8938-113.8935
  -113.8791-113.8723 -68.3881 -68.3837 -68.3816 -68.3790 -68.3727 -68.3585
   -68.3527 -68.3487 -68.3464 -68.3445 -68.3440 -68.3410 -68.3405 -68.3357
   -68.3337 -68.3332 -68.3320 -68.3304 -68.3246 -68.3190 -68.3167 -68.3141
   -68.3099 -68.3081 -68.3075 -68.3070 -68.3034 -68.3029 -68.3026 -68.3013
   -68.2978 -68.2959 -68.2949 -68.2938 -68.2929 -68.2751 -68.2750 -68.2675
   -68.2666 -68.2664 -68.2653 -68.2648 -68.2645 -68.2635 -68.2621 -68.2608
   -68.2595 -68.2590 -68.2581 -68.2579 -68.2570 -68.2569 -68.2533 -68.2530
   -68.2528 -68.2525 -68.2498 -68.2491 -68.2487 -68.2473 -68.2468 -68.2458
   -68.2456 -68.2366 -68.2341 -68.2320 -68.2314 -68.2297 -68.2285 -68.2276
   -68.2261 -68.2246 -68.2234 -68.2220 -68.2105 -68.2095 -68.2063 -68.1985
   -63.2804 -63.2658 -63.2399 -63.2123 -63.2114 -63.2063 -63.2054 -63.1865
   -63.1772 -63.1535 -30.3004 -30.2828 -30.2718 -30.2658 -30.2578 -30.2577
   -30.2540 -30.2382 -30.2294 -30.2267 -30.2251 -30.2236 -30.2235 -30.2087
   -30.2050 -30.2021 -30.1977 -30.1975 -30.1961 -30.1953 -30.1938 -30.1928
   -30.1883 -30.1732 -30.1728 -30.1710 -30.1668 -30.1621 -30.1404 -30.1375
    -9.0720  -8.7631  -8.6646  -8.6407  -8.5779  -8.5430  -8.4507  -8.4155
    -8.3899  -8.3568  -8.3473  -8.2720  -8.2584  -8.2267  -8.1986  -8.1691
    -8.1419  -8.1200  -8.1006  -8.0814  -8.0483  -8.0213  -8.0048  -7.9904
    -7.9732  -7.9364  -7.9134  -7.8935  -7.8681  -7.8426  -7.7919  -7.7712
    -7.7008  -7.6883  -7.6691  -7.6298   2.7134   2.7398   2.7660   2.7705
     2.7838   2.7875   2.8142   2.8166   2.8210   2.8485   2.8569   2.8736
     2.9129   2.9235   2.9814   3.0101   3.0334   3.0524   3.0691   3.0853
     3.0983   3.1050   3.1550   3.1733   3.1865   3.2060   3.2350   3.2758
     3.2915   3.3158   3.3187   3.3958   3.4103   3.4562   3.4705   3.4857
     3.4937   3.5286   3.5419   3.5558   3.5753   3.5922   3.6007   3.6176
     3.6193   3.6316   3.6380   3.6494   3.6604   3.6747   3.6802   3.6914
     3.6957   3.7123   3.7150   3.7505   3.7610   3.7954   3.8021   3.8116
     3.8293   3.8478   3.8609   3.8791   3.8922   3.9086   3.9398   3.9528
     3.9873   3.9946   4.0013   4.0226   4.0411   4.0512   4.0649   4.0798
     4.0947   4.1070   4.1237   4.1498   4.1627   4.1860   4.1983   4.2090
     4.2413   4.2529   4.2649   4.2929   4.3190   4.3579   4.3743   4.3872
     4.4092   4.4178   4.4438   4.4516   4.4780   4.4850   4.5027   4.5234
     4.5344   4.5522   4.5620   4.5888   4.6118   4.6236   4.6502   4.6663
     4.6769   4.6919   4.7079   4.7244   4.7398   4.7557   4.7724   4.7764
     4.7900   4.8106   4.8199   4.8384   4.8512   4.8602   4.8696   4.8825
     4.8903   4.9162   4.9234   4.9422   4.9757   5.0385   5.0612   5.0835
     5.1159   5.2230   5.2728   5.3534   5.3808   5.3926   5.4358   5.4670
     5.4988   5.5550   5.5829   5.6422   5.6513   5.6749   5.6820   5.7259
     5.7489   5.7706   5.7959   5.8192   5.8438   5.8716   5.8926   5.9399
     5.9765   5.9917   6.0270   6.0895   6.1778   6.1890   6.2370   6.2976
     6.3195   6.3407   6.3908   6.4334   6.4670   6.4837   6.4954   6.5535
     6.5811   6.5900   6.6336   6.6735   6.7466   6.7783   6.8252   6.8776
     6.9348   6.9674   7.0119   7.0550   7.1016   7.1470   7.1990   7.2514
     7.3025   7.3266   7.3549   7.4149   7.4566   7.5502   7.5799   7.6022
     7.6181   7.6270   7.6637   7.6804   7.7871   7.8080   7.8410   7.9324
     7.9445   7.9737   8.0037   8.0214   8.0472   8.0710   8.1156   8.1356
     8.1555   8.1690   8.1826   8.1989   8.2167   8.2339   8.2578   8.2694
     8.3103   8.3499   8.3978   8.4208   8.4946   8.5491   8.5681   8.6075
     8.7019   8.7308   8.7431   8.7571   8.7696   8.7841   8.7983   8.8170
     8.8299   9.0092  11.2780  13.1783  13.7034  13.7735  13.8855  13.9542
    14.6546  14.6915  14.7560  14.8497  14.9639  15.0119  15.0329  15.0675
    15.2299  15.2739  15.3075  15.3652  15.3986  15.4693  15.5101  15.7738
    16.4662  16.5451  16.6021  16.6466  16.6682  16.6994  16.7903  16.9579
    17.1060  17.1596  17.2592  17.4320  17.5011  17.5745  17.6154  17.7883
    17.8455  17.8917  17.9483  18.0088  18.0556  18.0645  18.1055  18.1454
    18.1690  18.2203  18.2474  18.3162  18.3255  18.3451  18.4000  18.4372
    18.5591  18.5872  18.6208  18.6582  18.7283  18.8048  18.8540  19.0100
    19.0403  19.1869  19.4232  19.4965  19.8032  19.8263  19.8960  19.9650
    19.9825  20.0414  20.1839  20.1984  20.2671  20.3342  20.3750  20.4040
    20.4514  20.4844  20.5282  20.5590  20.6145  20.6919

     occupation numbers 
     1.0000   1.0000   1.0000   1.0000   1.0000   1.0000   1.0000   1.0000
     1.0000   1.0000   1.0000   1.0000   1.0000   1.0000   1.0000   1.0000
     1.0000   1.0000   1.0000   1.0000   1.0000   1.0000   1.0000   1.0000
     1.0000   1.0000   1.0000   1.0000   1.0000   1.0000   1.0000   1.0000
     1.0000   1.0000   1.0000   1.0000   1.0000   1.0000   1.0000   1.0000
     1.0000   1.0000   1.0000   1.0000   1.0000   1.0000   1.0000   1.0000
     1.0000   1.0000   1.0000   1.0000   1.0000   1.0000   1.0000   1.0000
     1.0000   1.0000   1.0000   1.0000   1.0000   1.0000   1.0000   1.0000
     1.0000   1.0000   1.0000   1.0000   1.0000   1.0000   1.0000   1.0000
     1.0000   1.0000   1.0000   1.0000   1.0000   1.0000   1.0000   1.0000
     1.0000   1.0000   1.0000   1.0000   1.0000   1.0000   1.0000   1.0000
     1.0000   1.0000   1.0000   1.0000   1.0000   1.0000   1.0000   1.0000
     1.0000   1.0000   1.0000   1.0000   1.0000   1.0000   1.0000   1.0000
     1.0000   1.0000   1.0000   1.0000   1.0000   1.0000   1.0000   1.0000
     1.0000   1.0000   1.0000   1.0000   1.0000   1.0000   1.0000   1.0000
     1.0000   1.0000   1.0000   1.0000   1.0000   1.0000   1.0000   1.0000
     1.0000   1.0000   1.0000   1.0000   1.0000   1.0000   1.0000   1.0000
     1.0000   1.0000   1.0000   1.0000   1.0000   1.0000   1.0000   1.0000
     1.0000   1.0000   1.0000   1.0000   1.0000   1.0000   1.0000   1.0000
     1.0000   1.0000   1.0000   1.0000   1.0000   1.0000   1.0000   1.0000
     1.0000   1.0000   1.0000   1.0000   1.0000   1.0000   1.0000   1.0000
     1.0000   1.0000   1.0000   1.0000   1.0000   1.0000   1.0000   1.0000
     1.0000   1.0000   1.0000   1.0000   1.0000   1.0000   1.0000   1.0000
     1.0000   1.0000   1.0000   1.0000   1.0000   1.0000   1.0000   1.0000
     1.0000   1.0000   1.0000   1.0000   1.0000   1.0000   1.0000   1.0000
     1.0000   1.0000   1.0000   1.0000   1.0000   1.0000   1.0000   1.0000
     1.0000   1.0000   1.0000   1.0000   1.0000   1.0000   1.0000   1.0000
     1.0000   1.0000   1.0000   1.0000   1.0000   1.0000   1.0000   1.0000
     1.0000   1.0000   1.0000   1.0000   1.0000   1.0000   1.0000   1.0000
     1.0000   1.0000   1.0000   1.0000   1.0000   1.0000   1.0000   1.0000
     1.0000   1.0000   1.0000   1.0000   1.0000   1.0000   1.0000   1.0000
     1.0000   1.0000   1.0000   1.0000   1.0000   1.0000   1.0000   1.0000
     1.0000   1.0000   1.0000   1.0000   1.0000   1.0000   1.0000   1.0000
     1.0000   1.0000   1.0000   1.0000   1.0000   1.0000   1.0000   1.0000
     1.0000   1.0000   1.0000   1.0000   1.0000   1.0000   1.0000   1.0000
     1.0000   1.0000   1.0000   1.0000   1.0000   1.0000   1.0000   1.0000
     1.0000   1.0000   1.0000   1.0000   1.0000   1.0000   1.0000   1.0000
     1.0000   1.0000   1.0000   1.0000   1.0000   1.0000   1.0000   1.0000
     1.0000   1.0000   1.0000   1.0000   1.0000   1.0000   1.0000   1.0000
     1.0000   1.0000   1.0000   1.0000   1.0000   1.0000   1.0000   1.0000
     1.0000   1.0000   1.0000   1.0000   1.0000   1.0000   1.0000   1.0000
     1.0000   1.0000   1.0000   1.0000   1.0000   1.0000   1.0000   1.0000
     1.0000   1.0000   1.0000   1.0000   1.0000   1.0000   1.0000   1.0000
     1.0000   1.0000   1.0000   1.0000   1.0000   1.0000   1.0000   1.0000
     1.0000   1.0000   1.0000   1.0000   1.0000   1.0000   1.0000   1.0000
     1.0000   1.0000   1.0000   1.0000   1.0000   1.0000   1.0000   1.0000
     1.0000   1.0000   1.0000   1.0000   1.0000   1.0000   1.0000   1.0000
     1.0000   1.0000   1.0000   1.0000   1.0000   1.0000   1.0000   1.0000
     1.0000   1.0000   1.0000   1.0000   1.0000   1.0000   1.0000   1.0000
     1.0000   1.0000   1.0000   1.0000   1.0000   1.0000   1.0000   1.0000
     1.0000   1.0000   1.0000   1.0000   1.0000   1.0000   1.0000   1.0000
     1.0000   1.0000   1.0000   1.0000   1.0000   1.0000   1.0000   1.0000
     1.0000   1.0000   0.0000   0.0000   0.0000   0.0000   0.0000   0.0000
     0.0000   0.0000   0.0000   0.0000   0.0000   0.0000   0.0000   0.0000
     0.0000   0.0000   0.0000   0.0000   0.0000   0.0000   0.0000   0.0000
     0.0000   0.0000   0.0000   0.0000   0.0000   0.0000   0.0000   0.0000
     0.0000   0.0000   0.0000   0.0000   0.0000   0.0000   0.0000   0.0000
     0.0000   0.0000   0.0000   0.0000   0.0000   0.0000   0.0000   0.0000
     0.0000   0.0000   0.0000   0.0000   0.0000   0.0000   0.0000   0.0000
     0.0000   0.0000   0.0000   0.0000   0.0000   0.0000   0.0000   0.0000
     0.0000   0.0000   0.0000   0.0000   0.0000   0.0000   0.0000   0.0000
     0.0000   0.0000   0.0000   0.0000   0.0000   0.0000   0.0000   0.0000
     0.0000   0.0000   0.0000   0.0000   0.0000   0.0000

          k = 0.0004 0.2884 0.2575 ( 41120 PWs)   bands (ev):

  -113.9719-113.9700-113.9647-113.9629-113.9528-113.9366-113.9344-113.9328
  -113.9289-113.9285-113.9273-113.9237-113.9199-113.9198-113.9195-113.9193
  -113.9158-113.9139-113.9082-113.9005-113.8948-113.8939-113.8938-113.8935
  -113.8791-113.8723 -68.3881 -68.3837 -68.3816 -68.3790 -68.3727 -68.3585
   -68.3527 -68.3487 -68.3464 -68.3445 -68.3440 -68.3410 -68.3405 -68.3356
   -68.3337 -68.3332 -68.3320 -68.3304 -68.3246 -68.3190 -68.3167 -68.3141
   -68.3099 -68.3081 -68.3075 -68.3070 -68.3034 -68.3029 -68.3026 -68.3013
   -68.2978 -68.2959 -68.2949 -68.2938 -68.2929 -68.2751 -68.2750 -68.2675
   -68.2666 -68.2664 -68.2653 -68.2648 -68.2645 -68.2635 -68.2621 -68.2608
   -68.2595 -68.2590 -68.2581 -68.2579 -68.2570 -68.2569 -68.2533 -68.2530
   -68.2528 -68.2525 -68.2498 -68.2491 -68.2487 -68.2473 -68.2468 -68.2458
   -68.2456 -68.2366 -68.2341 -68.2320 -68.2314 -68.2297 -68.2285 -68.2276
   -68.2261 -68.2246 -68.2234 -68.2220 -68.2105 -68.2095 -68.2063 -68.1985
   -63.2804 -63.2658 -63.2399 -63.2123 -63.2114 -63.2063 -63.2054 -63.1865
   -63.1772 -63.1535 -30.3004 -30.2828 -30.2718 -30.2658 -30.2578 -30.2577
   -30.2540 -30.2382 -30.2294 -30.2267 -30.2251 -30.2236 -30.2235 -30.2087
   -30.2050 -30.2021 -30.1977 -30.1975 -30.1961 -30.1953 -30.1938 -30.1928
   -30.1883 -30.1732 -30.1728 -30.1710 -30.1668 -30.1621 -30.1404 -30.1375
    -9.0376  -8.7850  -8.7099  -8.6243  -8.6042  -8.4900  -8.4700  -8.4345
    -8.4096  -8.3631  -8.3362  -8.2778  -8.2654  -8.2183  -8.2094  -8.1720
    -8.1379  -8.1083  -8.0857  -8.0627  -8.0335  -8.0213  -7.9886  -7.9709
    -7.9556  -7.9422  -7.9113  -7.8998  -7.8727  -7.8571  -7.7951  -7.7770
    -7.7059  -7.6959  -7.6730  -7.6315   2.6900   2.7326   2.7480   2.7685
     2.7859   2.8096   2.8181   2.8261   2.8517   2.8752   2.8933   2.9041
     2.9368   2.9635   2.9975   3.0160   3.0375   3.0626   3.0687   3.0841
     3.1071   3.1305   3.1678   3.1787   3.1956   3.2145   3.2444   3.2788
     3.2900   3.3171   3.3396   3.3960   3.4179   3.4467   3.4643   3.4829
     3.4877   3.5179   3.5385   3.5584   3.5620   3.5786   3.5939   3.6140
     3.6204   3.6437   3.6477   3.6550   3.6610   3.6693   3.6759   3.6913
     3.7060   3.7160   3.7316   3.7398   3.7567   3.7688   3.7855   3.8079
     3.8118   3.8305   3.8460   3.8570   3.8619   3.8716   3.9108   3.9218
     3.9313   3.9463   3.9602   3.9826   4.0040   4.0441   4.0532   4.0832
     4.0931   4.0997   4.1229   4.1344   4.1574   4.1787   4.1975   4.2111
     4.2454   4.2480   4.2612   4.2861   4.3100   4.3395   4.3713   4.3873
     4.3944   4.4095   4.4381   4.4495   4.4698   4.4866   4.4986   4.5243
     4.5469   4.5668   4.5793   4.6072   4.6138   4.6254   4.6502   4.6808
     4.6901   4.6981   4.7069   4.7170   4.7296   4.7465   4.7670   4.7823
     4.7952   4.8113   4.8194   4.8357   4.8430   4.8556   4.8651   4.8807
     4.8829   4.9059   4.9267   4.9559   4.9742   5.0147   5.1063   5.1383
     5.1592   5.1972   5.2938   5.3244   5.3421   5.3773   5.4406   5.4578
     5.5047   5.5217   5.5589   5.5879   5.5988   5.6232   5.6522   5.6757
     5.7120   5.7189   5.7721   5.7918   5.8367   5.9043   5.9186   5.9790
     6.0314   6.0606   6.0842   6.1051   6.1593   6.1747   6.2400   6.2940
     6.3293   6.4184   6.4434   6.4619   6.4847   6.5315   6.5700   6.6029
     6.6317   6.6656   6.7118   6.7480   6.7676   6.8314   6.8529   6.8830
     6.9410   6.9789   7.0628   7.1096   7.1562   7.1976   7.2318   7.2870
     7.3138   7.3423   7.3988   7.4445   7.4819   7.4966   7.5175   7.5669
     7.6176   7.6511   7.6896   7.7256   7.7703   7.8111   7.8456   7.8614
     7.8909   7.8926   7.9226   7.9309   7.9741   8.0181   8.0343   8.0723
     8.0948   8.1270   8.1491   8.1808   8.2259   8.2584   8.3182   8.3410
     8.3581   8.3964   8.4098   8.4676   8.4848   8.5408   8.5539   8.5690
     8.6060   8.6602   8.6835   8.7128   8.7546   8.7738   8.8308   8.8699
     8.8851   8.9949  11.5258  12.9684  13.2833  13.8501  13.8967  14.0698
    14.3603  14.4729  14.6171  14.7429  14.8100  14.9320  15.0135  15.0928
    15.1953  15.3866  15.5813  15.7202  15.7884  15.8723  15.9199  15.9648
    16.3834  16.4732  16.5153  16.6128  16.7026  16.8311  16.8854  16.9159
    16.9741  17.0003  17.0857  17.1794  17.3425  17.3987  17.7347  17.8299
    17.8753  17.8976  17.9398  17.9739  18.0204  18.0424  18.0617  18.0836
    18.1657  18.1993  18.2217  18.3060  18.3188  18.3345  18.3936  18.4183
    18.5070  18.5374  18.6010  18.6501  18.7253  18.7848  18.9232  19.0042
    19.0313  19.1430  19.3349  19.5005  19.5887  19.7221  19.7585  19.8674
    19.8958  19.9984  20.0593  20.1431  20.2166  20.3158  20.3429  20.3923
    20.5058  20.5337  20.5966  20.6586  20.7639  20.8235

     occupation numbers 
     1.0000   1.0000   1.0000   1.0000   1.0000   1.0000   1.0000   1.0000
     1.0000   1.0000   1.0000   1.0000   1.0000   1.0000   1.0000   1.0000
     1.0000   1.0000   1.0000   1.0000   1.0000   1.0000   1.0000   1.0000
     1.0000   1.0000   1.0000   1.0000   1.0000   1.0000   1.0000   1.0000
     1.0000   1.0000   1.0000   1.0000   1.0000   1.0000   1.0000   1.0000
     1.0000   1.0000   1.0000   1.0000   1.0000   1.0000   1.0000   1.0000
     1.0000   1.0000   1.0000   1.0000   1.0000   1.0000   1.0000   1.0000
     1.0000   1.0000   1.0000   1.0000   1.0000   1.0000   1.0000   1.0000
     1.0000   1.0000   1.0000   1.0000   1.0000   1.0000   1.0000   1.0000
     1.0000   1.0000   1.0000   1.0000   1.0000   1.0000   1.0000   1.0000
     1.0000   1.0000   1.0000   1.0000   1.0000   1.0000   1.0000   1.0000
     1.0000   1.0000   1.0000   1.0000   1.0000   1.0000   1.0000   1.0000
     1.0000   1.0000   1.0000   1.0000   1.0000   1.0000   1.0000   1.0000
     1.0000   1.0000   1.0000   1.0000   1.0000   1.0000   1.0000   1.0000
     1.0000   1.0000   1.0000   1.0000   1.0000   1.0000   1.0000   1.0000
     1.0000   1.0000   1.0000   1.0000   1.0000   1.0000   1.0000   1.0000
     1.0000   1.0000   1.0000   1.0000   1.0000   1.0000   1.0000   1.0000
     1.0000   1.0000   1.0000   1.0000   1.0000   1.0000   1.0000   1.0000
     1.0000   1.0000   1.0000   1.0000   1.0000   1.0000   1.0000   1.0000
     1.0000   1.0000   1.0000   1.0000   1.0000   1.0000   1.0000   1.0000
     1.0000   1.0000   1.0000   1.0000   1.0000   1.0000   1.0000   1.0000
     1.0000   1.0000   1.0000   1.0000   1.0000   1.0000   1.0000   1.0000
     1.0000   1.0000   1.0000   1.0000   1.0000   1.0000   1.0000   1.0000
     1.0000   1.0000   1.0000   1.0000   1.0000   1.0000   1.0000   1.0000
     1.0000   1.0000   1.0000   1.0000   1.0000   1.0000   1.0000   1.0000
     1.0000   1.0000   1.0000   1.0000   1.0000   1.0000   1.0000   1.0000
     1.0000   1.0000   1.0000   1.0000   1.0000   1.0000   1.0000   1.0000
     1.0000   1.0000   1.0000   1.0000   1.0000   1.0000   1.0000   1.0000
     1.0000   1.0000   1.0000   1.0000   1.0000   1.0000   1.0000   1.0000
     1.0000   1.0000   1.0000   1.0000   1.0000   1.0000   1.0000   1.0000
     1.0000   1.0000   1.0000   1.0000   1.0000   1.0000   1.0000   1.0000
     1.0000   1.0000   1.0000   1.0000   1.0000   1.0000   1.0000   1.0000
     1.0000   1.0000   1.0000   1.0000   1.0000   1.0000   1.0000   1.0000
     1.0000   1.0000   1.0000   1.0000   1.0000   1.0000   1.0000   1.0000
     1.0000   1.0000   1.0000   1.0000   1.0000   1.0000   1.0000   1.0000
     1.0000   1.0000   1.0000   1.0000   1.0000   1.0000   1.0000   1.0000
     1.0000   1.0000   1.0000   1.0000   1.0000   1.0000   1.0000   1.0000
     1.0000   1.0000   1.0000   1.0000   1.0000   1.0000   1.0000   1.0000
     1.0000   1.0000   1.0000   1.0000   1.0000   1.0000   1.0000   1.0000
     1.0000   1.0000   1.0000   1.0000   1.0000   1.0000   1.0000   1.0000
     1.0000   1.0000   1.0000   1.0000   1.0000   1.0000   1.0000   1.0000
     1.0000   1.0000   1.0000   1.0000   1.0000   1.0000   1.0000   1.0000
     1.0000   1.0000   1.0000   1.0000   1.0000   1.0000   1.0000   1.0000
     1.0000   1.0000   1.0000   1.0000   1.0000   1.0000   1.0000   1.0000
     1.0000   1.0000   1.0000   1.0000   1.0000   1.0000   1.0000   1.0000
     1.0000   1.0000   1.0000   1.0000   1.0000   1.0000   1.0000   1.0000
     1.0000   1.0000   1.0000   1.0000   1.0000   1.0000   1.0000   1.0000
     1.0000   1.0000   1.0000   1.0000   1.0000   1.0000   1.0000   1.0000
     1.0000   1.0000   1.0000   1.0000   1.0000   1.0000   1.0000   1.0000
     1.0000   1.0000   1.0000   1.0000   1.0000   1.0000   1.0000   1.0000
     1.0000   1.0000   1.0000   1.0000   1.0000   1.0000   1.0000   1.0000
     1.0000   1.0000   1.0000   1.0000   1.0000   1.0000   1.0000   1.0000
     1.0000   1.0000   0.0000   0.0000   0.0000   0.0000   0.0000   0.0000
     0.0000   0.0000   0.0000   0.0000   0.0000   0.0000   0.0000   0.0000
     0.0000   0.0000   0.0000   0.0000   0.0000   0.0000   0.0000   0.0000
     0.0000   0.0000   0.0000   0.0000   0.0000   0.0000   0.0000   0.0000
     0.0000   0.0000   0.0000   0.0000   0.0000   0.0000   0.0000   0.0000
     0.0000   0.0000   0.0000   0.0000   0.0000   0.0000   0.0000   0.0000
     0.0000   0.0000   0.0000   0.0000   0.0000   0.0000   0.0000   0.0000
     0.0000   0.0000   0.0000   0.0000   0.0000   0.0000   0.0000   0.0000
     0.0000   0.0000   0.0000   0.0000   0.0000   0.0000   0.0000   0.0000
     0.0000   0.0000   0.0000   0.0000   0.0000   0.0000   0.0000   0.0000
     0.0000   0.0000   0.0000   0.0000   0.0000   0.0000

          k = 0.0002 0.2885-0.5151 ( 41108 PWs)   bands (ev):

  -113.9719-113.9700-113.9647-113.9629-113.9528-113.9366-113.9344-113.9328
  -113.9289-113.9285-113.9273-113.9237-113.9199-113.9198-113.9195-113.9193
  -113.9158-113.9139-113.9082-113.9005-113.8948-113.8939-113.8938-113.8935
  -113.8791-113.8723 -68.3881 -68.3837 -68.3816 -68.3790 -68.3727 -68.3585
   -68.3527 -68.3487 -68.3464 -68.3445 -68.3440 -68.3410 -68.3405 -68.3356
   -68.3337 -68.3332 -68.3320 -68.3304 -68.3246 -68.3190 -68.3167 -68.3141
   -68.3099 -68.3081 -68.3075 -68.3070 -68.3034 -68.3029 -68.3026 -68.3013
   -68.2978 -68.2959 -68.2949 -68.2938 -68.2929 -68.2751 -68.2750 -68.2675
   -68.2666 -68.2664 -68.2653 -68.2648 -68.2645 -68.2635 -68.2621 -68.2608
   -68.2595 -68.2590 -68.2581 -68.2579 -68.2570 -68.2569 -68.2533 -68.2530
   -68.2528 -68.2525 -68.2498 -68.2491 -68.2487 -68.2473 -68.2468 -68.2458
   -68.2456 -68.2366 -68.2341 -68.2320 -68.2314 -68.2297 -68.2285 -68.2276
   -68.2261 -68.2246 -68.2234 -68.2220 -68.2105 -68.2095 -68.2063 -68.1985
   -63.2804 -63.2658 -63.2399 -63.2123 -63.2114 -63.2063 -63.2054 -63.1865
   -63.1772 -63.1535 -30.3004 -30.2828 -30.2718 -30.2658 -30.2578 -30.2577
   -30.2540 -30.2382 -30.2294 -30.2267 -30.2251 -30.2236 -30.2235 -30.2087
   -30.2050 -30.2021 -30.1977 -30.1975 -30.1961 -30.1953 -30.1938 -30.1928
   -30.1883 -30.1732 -30.1728 -30.1710 -30.1668 -30.1621 -30.1404 -30.1375
    -8.9640  -8.8976  -8.6702  -8.6116  -8.5619  -8.5502  -8.5064  -8.4543
    -8.3995  -8.3663  -8.3298  -8.2960  -8.2722  -8.2253  -8.1986  -8.1533
    -8.1182  -8.0945  -8.0718  -8.0423  -8.0291  -8.0153  -7.9918  -7.9606
    -7.9480  -7.9346  -7.9154  -7.9019  -7.8771  -7.8704  -7.8000  -7.7783
    -7.7100  -7.7034  -7.6802  -7.6329   2.6805   2.7310   2.7427   2.7701
     2.7833   2.8108   2.8210   2.8394   2.8703   2.8971   2.9227   2.9553
     2.9616   3.0020   3.0096   3.0220   3.0543   3.0669   3.0788   3.0923
     3.1088   3.1415   3.1676   3.1939   3.2072   3.2272   3.2494   3.2754
     3.3012   3.3266   3.3787   3.3899   3.4040   3.4446   3.4610   3.4792
     3.4858   3.4994   3.5232   3.5397   3.5470   3.5912   3.5977   3.6055
     3.6180   3.6238   3.6383   3.6472   3.6611   3.6712   3.6843   3.6986
     3.7110   3.7202   3.7297   3.7469   3.7522   3.7680   3.7721   3.7905
     3.7975   3.8131   3.8220   3.8393   3.8561   3.8811   3.8903   3.9028
     3.9206   3.9267   3.9477   3.9596   3.9653   3.9779   4.0181   4.0336
     4.0588   4.0818   4.0960   4.1223   4.1329   4.1498   4.1588   4.1880
     4.2306   4.2609   4.2887   4.3041   4.3262   4.3413   4.3629   4.3867
     4.3921   4.4146   4.4277   4.4477   4.4603   4.4922   4.5167   4.5214
     4.5585   4.5703   4.5910   4.6056   4.6151   4.6326   4.6590   4.6801
     4.6905   4.7029   4.7157   4.7251   4.7416   4.7516   4.7691   4.7784
     4.7884   4.7980   4.8135   4.8221   4.8390   4.8491   4.8603   4.8766
     4.8833   4.9093   4.9303   4.9458   4.9757   5.0105   5.1451   5.1684
     5.2010   5.2395   5.2564   5.3156   5.3306   5.3721   5.4085   5.4579
     5.4936   5.5068   5.5295   5.5505   5.5777   5.6182   5.6383   5.6533
     5.6780   5.7067   5.7500   5.7803   5.8330   5.8780   5.9104   5.9977
     6.0177   6.0722   6.0993   6.1087   6.1561   6.1986   6.2767   6.3045
     6.3511   6.3686   6.4461   6.4899   6.5090   6.5559   6.6437   6.6566
     6.7044   6.7239   6.7747   6.8435   6.8829   6.9035   6.9564   6.9956
     7.0218   7.0466   7.1009   7.1234   7.1887   7.2302   7.2665   7.3384
     7.3710   7.3879   7.4038   7.4322   7.4707   7.4812   7.5191   7.5362
     7.5688   7.6048   7.6514   7.6676   7.6733   7.7143   7.7450   7.7750
     7.8155   7.8337   7.8692   7.8952   7.9216   7.9644   8.0045   8.0552
     8.1202   8.1658   8.2046   8.2462   8.2750   8.2944   8.3198   8.3582
[...]
     atom   35 type  3   force =     0.00000000    0.00000000    0.00000000
     atom   36 type  1   force =     0.00000000    0.00000000    0.00000000
     atom   37 type  2   force =    -0.00182973   -0.00105778    0.00007873
     atom   38 type  2   force =     0.00010219    0.00009869   -0.00004273
     atom   39 type  2   force =    -0.00187818   -0.00114066   -0.00002300
     atom   40 type  2   force =    -0.00192930    0.00107967   -0.00009497
     atom   41 type  2   force =    -0.00190319   -0.00110908    0.00004289
     atom   42 type  2   force =    -0.00006733   -0.00233511   -0.00004990
     atom   43 type  2   force =    -0.00001490   -0.00000558    0.00038575
     atom   44 type  2   force =    -0.00001044   -0.00003785   -0.00031575
     atom   45 type  2   force =     0.00004389    0.00016234    0.00037207
     atom   46 type  2   force =    -0.00000017    0.00011272   -0.00035102
     atom   47 type  2   force =    -0.00012441   -0.00004040   -0.00033713
     atom   48 type  2   force =     0.00190337    0.00116668    0.00035143
     atom   49 type  2   force =     0.00200291    0.00112709    0.00000124
     atom   50 type  2   force =     0.00003035   -0.00222586   -0.00001897
     atom   51 type  2   force =     0.00185427    0.00098196   -0.00042164
     atom   52 type  2   force =     0.00192905    0.00099069    0.00032988
     atom   53 type  2   force =     0.00201696    0.00118665   -0.00031449
     atom   54 type  2   force =    -0.00190978    0.00114159    0.00033323
     atom   55 type  2   force =     0.00001893   -0.00008207    0.00032216
     atom   56 type  2   force =     0.00001462   -0.00008674   -0.00027854
     atom   57 type  2   force =    -0.00193727   -0.00117654    0.00001787
     atom   58 type  2   force =    -0.00005702   -0.00008154    0.00000515
     atom   59 type  2   force =    -0.00197191   -0.00098488    0.00031690
     atom   60 type  2   force =     0.00002325    0.00013818   -0.00035021
     atom   61 type  2   force =     0.00007514    0.00018982    0.00000414
     atom   62 type  2   force =     0.00196519    0.00116971    0.00000663
     atom   63 type  2   force =    -0.00004803    0.00222583    0.00008953
     atom   64 type  2   force =     0.00197230   -0.00111724    0.00016112
     atom   65 type  2   force =     0.00185555   -0.00114276   -0.00003499
     atom   66 type  2   force =    -0.00008882    0.00227895   -0.00008179
     atom   67 type  2   force =     0.00004963    0.00211446    0.00004836
     atom   68 type  2   force =    -0.00187943   -0.00125109    0.00006203
     atom   69 type  2   force =     0.00193275    0.00108264   -0.00009940
     atom   70 type  2   force =    -0.00193319   -0.00105593    0.00004791
     atom   71 type  2   force =    -0.00005359   -0.00224238   -0.00039755
     atom   72 type  2   force =    -0.00006955   -0.00001934    0.00029795
     The Hubbard contrib.    to forces
     atom    1 type  1   force =     0.00000000    0.00000000    0.00000000
     atom    2 type  1   force =     0.00000000    0.00000000    0.00000000
     atom    3 type  1   force =     0.00000000    0.00000000    0.00000000
     atom    4 type  1   force =     0.00000000    0.00000000    0.00000000
     atom    5 type  1   force =     0.00000000    0.00000000    0.00000000
     atom    6 type  1   force =     0.00000000    0.00000000    0.00000000
     atom    7 type  1   force =     0.00000000    0.00000000    0.00000000
     atom    8 type  3   force =     0.00000000    0.00000000    0.00000000
     atom    9 type  1   force =     0.00000000    0.00000000    0.00000000
     atom   10 type  3   force =     0.00000000    0.00000000    0.00000000
     atom   11 type  3   force =     0.00000000    0.00000000    0.00000000
     atom   12 type  1   force =     0.00000000    0.00000000    0.00000000
     atom   13 type  1   force =     0.00000000    0.00000000    0.00000000
     atom   14 type  1   force =     0.00000000    0.00000000    0.00000000
     atom   15 type  3   force =     0.00000000    0.00000000    0.00000000
     atom   16 type  1   force =     0.00000000    0.00000000    0.00000000
     atom   17 type  3   force =     0.00000000    0.00000000    0.00000000
     atom   18 type  1   force =     0.00000000    0.00000000    0.00000000
     atom   19 type  1   force =     0.00000000    0.00000000    0.00000000
     atom   20 type  3   force =     0.00000000    0.00000000    0.00000000
     atom   21 type  3   force =     0.00000000    0.00000000    0.00000000
     atom   22 type  3   force =     0.00000000    0.00000000    0.00000000
     atom   23 type  1   force =     0.00000000    0.00000000    0.00000000
     atom   24 type  3   force =     0.00000000    0.00000000    0.00000000
     atom   25 type  1   force =     0.00000000    0.00000000    0.00000000
     atom   26 type  1   force =     0.00000000    0.00000000    0.00000000
     atom   27 type  1   force =     0.00000000    0.00000000    0.00000000
     atom   28 type  1   force =     0.00000000    0.00000000    0.00000000
     atom   29 type  1   force =     0.00000000    0.00000000    0.00000000
     atom   30 type  1   force =     0.00000000    0.00000000    0.00000000
     atom   31 type  1   force =     0.00000000    0.00000000    0.00000000
     atom   32 type  1   force =     0.00000000    0.00000000    0.00000000
     atom   33 type  1   force =     0.00000000    0.00000000    0.00000000
     atom   34 type  1   force =     0.00000000    0.00000000    0.00000000
     atom   35 type  3   force =     0.00000000    0.00000000    0.00000000
     atom   36 type  1   force =     0.00000000    0.00000000    0.00000000
     atom   37 type  2   force =     0.00000000    0.00000000    0.00000000
     atom   38 type  2   force =     0.00000000    0.00000000    0.00000000
     atom   39 type  2   force =     0.00000000    0.00000000    0.00000000
     atom   40 type  2   force =     0.00000000    0.00000000    0.00000000
     atom   41 type  2   force =     0.00000000    0.00000000    0.00000000
     atom   42 type  2   force =     0.00000000    0.00000000    0.00000000
     atom   43 type  2   force =     0.00000000    0.00000000    0.00000000
     atom   44 type  2   force =     0.00000000    0.00000000    0.00000000
     atom   45 type  2   force =     0.00000000    0.00000000    0.00000000
     atom   46 type  2   force =     0.00000000    0.00000000    0.00000000
     atom   47 type  2   force =     0.00000000    0.00000000    0.00000000
     atom   48 type  2   force =     0.00000000    0.00000000    0.00000000
     atom   49 type  2   force =     0.00000000    0.00000000    0.00000000
     atom   50 type  2   force =     0.00000000    0.00000000    0.00000000
     atom   51 type  2   force =     0.00000000    0.00000000    0.00000000
     atom   52 type  2   force =     0.00000000    0.00000000    0.00000000
     atom   53 type  2   force =     0.00000000    0.00000000    0.00000000
     atom   54 type  2   force =     0.00000000    0.00000000    0.00000000
     atom   55 type  2   force =     0.00000000    0.00000000    0.00000000
     atom   56 type  2   force =     0.00000000    0.00000000    0.00000000
     atom   57 type  2   force =     0.00000000    0.00000000    0.00000000
     atom   58 type  2   force =     0.00000000    0.00000000    0.00000000
     atom   59 type  2   force =     0.00000000    0.00000000    0.00000000
     atom   60 type  2   force =     0.00000000    0.00000000    0.00000000
     atom   61 type  2   force =     0.00000000    0.00000000    0.00000000
     atom   62 type  2   force =     0.00000000    0.00000000    0.00000000
     atom   63 type  2   force =     0.00000000    0.00000000    0.00000000
     atom   64 type  2   force =     0.00000000    0.00000000    0.00000000
     atom   65 type  2   force =     0.00000000    0.00000000    0.00000000
     atom   66 type  2   force =     0.00000000    0.00000000    0.00000000
     atom   67 type  2   force =     0.00000000    0.00000000    0.00000000
     atom   68 type  2   force =     0.00000000    0.00000000    0.00000000
     atom   69 type  2   force =     0.00000000    0.00000000    0.00000000
     atom   70 type  2   force =     0.00000000    0.00000000    0.00000000
     atom   71 type  2   force =     0.00000000    0.00000000    0.00000000
     atom   72 type  2   force =     0.00000000    0.00000000    0.00000000
     The SCF correction term to forces
     atom    1 type  1   force =    -0.00001992    0.00002067    0.00000000
     atom    2 type  1   force =    -0.00004504   -0.00003314    0.00000000
     atom    3 type  1   force =    -0.00006357   -0.00002111    0.00000000
     atom    4 type  1   force =    -0.00003952   -0.00003122    0.00000000
     atom    5 type  1   force =    -0.00004787   -0.00006995    0.00000000
     atom    6 type  1   force =    -0.00005838   -0.00001877    0.00000000
     atom    7 type  1   force =    -0.00003779    0.00003470    0.00000000
     atom    8 type  3   force =     0.00000508    0.00000791    0.00000000
     atom    9 type  1   force =     0.00001222   -0.00001704    0.00000000
     atom   10 type  3   force =     0.00001685    0.00000697    0.00000000
     atom   11 type  3   force =     0.00001773   -0.00000488    0.00000000
     atom   12 type  1   force =     0.00003839    0.00001847    0.00000000
     atom   13 type  1   force =     0.00005533    0.00000583    0.00000000
     atom   14 type  1   force =     0.00003944   -0.00000640    0.00000000
     atom   15 type  3   force =     0.00002650    0.00002802    0.00000000
     atom   16 type  1   force =     0.00000469    0.00001912    0.00000000
     atom   17 type  3   force =     0.00000207    0.00000158    0.00000000
     atom   18 type  1   force =     0.00001562    0.00002192    0.00000000
     atom   19 type  1   force =    -0.00001917   -0.00002591    0.00000000
     atom   20 type  3   force =    -0.00002558   -0.00001386    0.00000000
     atom   21 type  3   force =    -0.00002411   -0.00000779    0.00000000
     atom   22 type  3   force =    -0.00003355   -0.00001486    0.00000000
     atom   23 type  1   force =    -0.00004600   -0.00002060    0.00000000
     atom   24 type  3   force =    -0.00002852   -0.00002081    0.00000000
     atom   25 type  1   force =     0.00002136    0.00002583    0.00000000
     atom   26 type  1   force =     0.00003034    0.00003384    0.00000000
     atom   27 type  1   force =     0.00004197    0.00002796    0.00000000
     atom   28 type  1   force =     0.00003572    0.00002760    0.00000000
     atom   29 type  1   force =     0.00002933    0.00000170    0.00000000
     atom   30 type  1   force =     0.00002881   -0.00000148    0.00000000
     atom   31 type  1   force =     0.00000532    0.00001725    0.00000000
     atom   32 type  1   force =     0.00002803    0.00003517    0.00000000
     atom   33 type  1   force =     0.00000659    0.00002094    0.00000000
     atom   34 type  1   force =     0.00003438    0.00001653    0.00000000
     atom   35 type  3   force =     0.00000909   -0.00001436    0.00000000
     atom   36 type  1   force =     0.00002469   -0.00000482    0.00000000
     atom   37 type  2   force =    -0.00000626   -0.00000415    0.00000000
     atom   38 type  2   force =    -0.00000500   -0.00000322    0.00000000
     atom   39 type  2   force =    -0.00000845   -0.00000043    0.00000000
     atom   40 type  2   force =    -0.00000730   -0.00000083    0.00000000
     atom   41 type  2   force =    -0.00000696   -0.00000795    0.00000000
     atom   42 type  2   force =    -0.00000720   -0.00000657    0.00000000
     atom   43 type  2   force =    -0.00000050    0.00000115    0.00000000
     atom   44 type  2   force =    -0.00000084    0.00000229    0.00000000
     atom   45 type  2   force =     0.00000237    0.00000209    0.00000000
     atom   46 type  2   force =     0.00000398    0.00000252    0.00000000
     atom   47 type  2   force =     0.00000284   -0.00000102    0.00000000
     atom   48 type  2   force =     0.00000817    0.00000054    0.00000000
     atom   49 type  2   force =     0.00000672    0.00000183    0.00000000
     atom   50 type  2   force =     0.00000534   -0.00000285    0.00000000
     atom   51 type  2   force =     0.00000784    0.00000802    0.00000000
     atom   52 type  2   force =     0.00000314    0.00000741    0.00000000
     atom   53 type  2   force =     0.00000510    0.00000185    0.00000000
     atom   54 type  2   force =    -0.00000020    0.00000067    0.00000000
     atom   55 type  2   force =     0.00000052    0.00000163    0.00000000
     atom   56 type  2   force =    -0.00000238   -0.00000330    0.00000000
     atom   57 type  2   force =    -0.00000875   -0.00000273    0.00000000
     atom   58 type  2   force =    -0.00000693    0.00000021    0.00000000
     atom   59 type  2   force =    -0.00000462   -0.00000645    0.00000000
     atom   60 type  2   force =    -0.00000465   -0.00000507    0.00000000
     atom   61 type  2   force =     0.00000215    0.00000623    0.00000000
     atom   62 type  2   force =     0.00000069    0.00000236    0.00000000
     atom   63 type  2   force =     0.00000462    0.00000064    0.00000000
     atom   64 type  2   force =     0.00000197    0.00000171    0.00000000
     atom   65 type  2   force =    -0.00000131   -0.00000197    0.00000000
     atom   66 type  2   force =    -0.00000155   -0.00000325    0.00000000
     atom   67 type  2   force =    -0.00000089    0.00000922    0.00000000
     atom   68 type  2   force =     0.00000142    0.00000524    0.00000000
     atom   69 type  2   force =     0.00000201    0.00000103    0.00000000
     atom   70 type  2   force =     0.00000378    0.00000256    0.00000000
     atom   71 type  2   force =     0.00000467   -0.00000588    0.00000000
     atom   72 type  2   force =     0.00000523   -0.00000212    0.00000000

     Total force =     0.000078     Total SCF correction =     0.000242
     SCF correction compared to forces is large: reduce conv_thr to get better values


     Computing stress (Cartesian axis) and pressure

          total   stress  (Ry/bohr**3)                   (kbar)     P=  140.64
   0.00142918  -0.00000325  -0.00000015        210.24     -0.48     -0.02
  -0.00000325   0.00143082  -0.00000028         -0.48    210.48     -0.04
  -0.00000015  -0.00000028   0.00000811         -0.02     -0.04      1.19

     kinetic stress (kbar)  32618.71      0.04      0.14
                                0.04  32618.35      0.20
                                0.14      0.20  33028.66

     local   stress (kbar) -11967.17   2075.36   1513.54
                             2075.36 -11894.71    424.23
                             1513.54    424.23   3031.74

     nonloc. stress (kbar)    384.18     -0.83     -0.15
                               -0.83    384.31     -0.07
                               -0.15     -0.07    103.65

     hartree stress (kbar)  58832.20  -1004.05   -739.13
                            -1004.05  58786.14   -209.71
                             -739.13   -209.71  54318.04

     exc-cor stress (kbar) -13282.45     -0.07     -0.00
                               -0.07 -13282.40     -0.00
                               -0.00     -0.00 -13295.32

     corecor stress (kbar)   -273.42      0.00     -0.00
                                0.00   -273.42     -0.00
                               -0.00     -0.00   -273.89

     ewald   stress (kbar) -66101.81  -1070.93   -774.42
                            -1070.93 -66127.80   -214.69
                             -774.42   -214.69 -76911.68

     hubbard stress (kbar)      0.00      0.00      0.00
                                0.00      0.00      0.00
                                0.00      0.00      0.00

     london  stress (kbar)      0.00      0.00      0.00
                                0.00      0.00      0.00
                                0.00      0.00      0.00

     DFT-D3  stress (kbar)      0.00      0.00      0.00
                                0.00      0.00      0.00
                                0.00      0.00      0.00

     XDM     stress (kbar)      0.00      0.00      0.00
                                0.00      0.00      0.00
                                0.00      0.00      0.00

     dft-nl  stress (kbar)      0.00      0.00      0.00
                                0.00      0.00      0.00
                                0.00      0.00      0.00

     TS-vdW  stress (kbar)      0.00      0.00      0.00
                                0.00      0.00      0.00
                                0.00      0.00      0.00



     Writing output data file ZnO.save/
 
     init_run     :     15.47s CPU     16.11s WALL (       1 calls)
     electrons    :    723.78s CPU    742.17s WALL (       1 calls)
     forces       :     10.08s CPU     10.49s WALL (       1 calls)
     stress       :    137.57s CPU    139.99s WALL (       1 calls)

     Called by init_run:
     wfcinit      :     12.84s CPU     13.27s WALL (       1 calls)
     wfcinit:atom :      0.09s CPU      0.11s WALL (       5 calls)
     wfcinit:wfcr :     12.33s CPU     12.69s WALL (       5 calls)
     potinit      :      1.11s CPU      1.16s WALL (       1 calls)
     hinit0       :      0.80s CPU      0.87s WALL (       1 calls)

     Called by electrons:
     c_bands      :    670.03s CPU    686.60s WALL (      12 calls)
     sum_band     :     47.30s CPU     48.53s WALL (      12 calls)
     v_of_rho     :      5.26s CPU      5.58s WALL (      13 calls)
     v_h          :      0.10s CPU      0.15s WALL (      13 calls)
     v_xc         :      5.93s CPU      6.23s WALL (      15 calls)
     newd         :      1.33s CPU      1.43s WALL (      13 calls)
     mix_rho      :      0.26s CPU      0.36s WALL (      12 calls)

     Called by c_bands:
     init_us_2    :      4.05s CPU      4.14s WALL (     135 calls)
     cegterg      :    626.95s CPU    643.05s WALL (      60 calls)

     Called by sum_band:
     sum_band:bec :      0.27s CPU      0.28s WALL (      60 calls)
     addusdens    :      1.05s CPU      1.11s WALL (      12 calls)

     Called by *egterg:
     h_psi        :    209.13s CPU    213.68s WALL (     245 calls)
     s_psi        :     54.17s CPU     54.49s WALL (     245 calls)
     g_psi        :      0.67s CPU      0.67s WALL (     180 calls)
     cdiaghg      :    233.07s CPU    239.63s WALL (     240 calls)
     cegterg:over :     60.59s CPU     62.65s WALL (     180 calls)
     cegterg:upda :     39.26s CPU     39.86s WALL (     180 calls)
     cegterg:last :     22.64s CPU     22.87s WALL (      60 calls)
     cdiaghg:chol :     10.82s CPU     10.92s WALL (     240 calls)
     cdiaghg:inve :      3.39s CPU      3.40s WALL (     240 calls)
     cdiaghg:para :     56.24s CPU     61.08s WALL (     480 calls)

     Called by h_psi:
     h_psi:pot    :    207.67s CPU    211.15s WALL (     245 calls)
     h_psi:calbec :     55.44s CPU     57.51s WALL (     245 calls)
     vloc_psi     :     97.37s CPU     98.31s WALL (     245 calls)
     add_vuspsi   :     54.87s CPU     55.32s WALL (     245 calls)

     General routines
     calbec       :     86.20s CPU     89.42s WALL (     330 calls)
     fft          :      0.99s CPU      1.52s WALL (     192 calls)
     ffts         :      0.06s CPU      0.06s WALL (      25 calls)
     fftw         :    112.15s CPU    113.24s WALL (  180454 calls)
     interpolate  :      0.11s CPU      0.15s WALL (      13 calls)
 
     Parallel routines
     fft_scatt_xy :     17.76s CPU     17.92s WALL (  180671 calls)
     fft_scatt_yz :     31.74s CPU     32.58s WALL (  180671 calls)
 
     PWSCF        :  15m 2.68s CPU  15m27.40s WALL

 
   This run was terminated on:  22: 0: 1   8Nov2021            

=------------------------------------------------------------------------------=
   JOB DONE.
=------------------------------------------------------------------------------=
