
     Program PWSCF v.6.4.1 starts on 15Jun2022 at 23:23:32 

     This program is part of the open-source Quantum ESPRESSO suite
     for quantum simulation of materials; please cite
         "P. Giannozzi et al., J. Phys.:Condens. Matter 21 395502 (2009);
         "P. Giannozzi et al., J. Phys.:Condens. Matter 29 465901 (2017);
          URL http://www.quantum-espresso.org", 
     in publications or presentations arising from this work. More details at
     http://www.quantum-espresso.org/quote

     Parallel version (MPI), running on    64 processors

     MPI processes distributed on     1 nodes
     K-points division:     npool     =       4
     R & G space division:  proc/nbgrp/npool/nimage =      16
     Waiting for input...
     Reading input from standard input
Warning: card &IONS ignored
Warning: card   UPSCALE           = 100.D0, ignored
Warning: card / ignored
Warning: card &CELL ignored
Warning: card   CELL_DYNAMICS     = 'BFGS' ignored
Warning: card   PRESS_CONV_THR    = 0.5D0 ignored
Warning: card   CELL_DOFREE = 'ALL' ignored
Warning: card / ignored

     Current dimensions of program PWSCF are:
     Max number of different atomic species (ntypx) = 10
     Max number of k-points (npk) =  40000
     Max angular momentum in pseudopotentials (lmaxx) =  3

     Subspace diagonalization in iterative solution of the eigenvalue problem:
     one sub-group per band group will be used
     scalapack distributed-memory algorithm (size of sub-group:  2*  2 procs)

     Message from routine set_sym_bl:
     NOTICE: Symmetry group for Bravais lattice is not a group (16) - symmetries are disabled
 
     Parallelization info
     --------------------
     sticks:   dense  smooth     PW     G-vecs:    dense   smooth      PW
     Min          94      50     15                 4968     1934     339
     Max          95      51     16                 4977     1941     346
     Sum        1507     805    253                79537    30981    5505
 


     bravais-lattice index     =            0
     lattice parameter (alat)  =       6.0474  a.u.
     unit-cell volume          =     320.6241 (a.u.)^3
     number of atoms/cell      =            4
     number of atomic types    =            3
     number of electrons       =        42.00
     number of Kohn-Sham states=           21
     kinetic-energy cutoff     =      80.0000  Ry
     charge density cutoff     =     600.0000  Ry
     convergence threshold     =      1.0E-06
     mixing beta               =       0.5000
     number of iterations used =            8  plain     mixing
     Exchange-correlation      = SLA  PW   PSX  PSC ( 1  4 10  8 0 0)
     Using LIBXC version       =    4   3   4

     celldm(1)=   6.047412  celldm(2)=   0.000000  celldm(3)=   0.000000
     celldm(4)=   0.000000  celldm(5)=   0.000000  celldm(6)=   0.000000

     crystal axes: (cart. coord. in units of alat)
               a(1) = (   1.000000   0.000000  -0.000000 )  
               a(2) = (  -0.500000   0.866025   0.000000 )  
               a(3) = (  -0.000000   0.000001   1.674006 )  

     reciprocal axes: (cart. coord. in units 2 pi/alat)
               b(1) = (  1.000000  0.577350 -0.000000 )  
               b(2) = ( -0.000000  1.154701 -0.000000 )  
               b(3) = (  0.000000 -0.000000  0.597370 )  


     PseudoPot. # 1 for Mg read from file:
     ./GBRV_PBEsol/mg_pbesol_v1.4.uspp.F.UPF
     MD5 check sum: 4059f37963cf5867752dbf5ab2400678
     Pseudo is Ultrasoft, Zval = 10.0
     Generated by new atomic code, or converted to UPF format
     Using radial grid of  821 points,  7 beta functions with: 
                l(1) =   0
                l(2) =   0
                l(3) =   0
                l(4) =   1
                l(5) =   1
                l(6) =   2
                l(7) =   2
     Q(r) pseudized with  8 coefficients,  rinner =    1.200   1.200   1.200
                                                       1.200   1.200

     PseudoPot. # 2 for Zn read from file:
     ./GBRV_PBEsol/zn_pbesol_v1.uspp.F.UPF
     MD5 check sum: 7d8615e52efe7c1e2b1899de8658bae2
     Pseudo is Ultrasoft, Zval = 20.0
     Generated by new atomic code, or converted to UPF format
     Using radial grid of  943 points,  6 beta functions with: 
                l(1) =   0
                l(2) =   0
                l(3) =   1
                l(4) =   1
                l(5) =   2
                l(6) =   2
     Q(r) pseudized with  8 coefficients,  rinner =    1.100   1.100   1.100
                                                       1.100   1.100

     PseudoPot. # 3 for O  read from file:
     ./GBRV_PBEsol/o_pbesol_v1.2.uspp.F.UPF
     MD5 check sum: 501638753501ef6325af9037351f7734
     Pseudo is Ultrasoft + core correction, Zval =  6.0
     Generated by new atomic code, or converted to UPF format
     Using radial grid of  737 points,  5 beta functions with: 
                l(1) =   0
                l(2) =   0
                l(3) =   1
                l(4) =   1
                l(5) =   2
     Q(r) pseudized with  8 coefficients,  rinner =    0.900   0.900   0.900
                                                       0.900   0.900

     atomic species   valence    mass     pseudopotential
        Mg            10.00    24.30500     Mg( 1.00)
        Zn            20.00    65.38000     Zn( 1.00)
        O              6.00    15.99900     O ( 1.00)

     No symmetry found


                                    s                        frac. trans.

      isym =  1     identity                                     

 cryst.   s( 1) = (     1          0          0      )
                  (     0          1          0      )
                  (     0          0          1      )

 cart.    s( 1) = (  1.0000000  0.0000000  0.0000000 )
                  ( -0.0000000  1.0000000  0.0000000 )
                  (  0.0000000 -0.0000000  1.0000000 )


   Cartesian axes

     site n.     atom                  positions (alat units)
         1           O   tau(   1) = (   0.5000002   0.2886754   0.0122971  )
         2           O   tau(   2) = (  -0.0000000   0.5773497   0.8492999  )
         3           Zn  tau(   3) = (   0.4999999   0.2886750   0.6093279  )
         4           Mg  tau(   4) = (  -0.0000003   0.5773516   1.4518293  )

   Crystallographic axes

     site n.     atom                  positions (cryst. coord.)
         1           O   tau(   1) = (  0.6666670  0.3333337  0.0073459  )
         2           O   tau(   2) = (  0.3333329  0.6666657  0.5073458  )
         3           Zn  tau(   3) = (  0.6666664  0.3333329  0.3639939  )
         4           Mg  tau(   4) = (  0.3333336  0.6666677  0.8672785  )

     number of k points=   260
                       cart. coord. in units 2pi/alat
        k(    1) = (   0.0000000   0.0000000   0.0000000), wk =   0.0039062
        k(    2) = (   0.0000000  -0.0000000   0.0746712), wk =   0.0078125
        k(    3) = (   0.0000000  -0.0000001   0.1493424), wk =   0.0078125
        k(    4) = (   0.0000000  -0.0000001   0.2240136), wk =   0.0078125
        k(    5) = (  -0.0000000   0.0000001  -0.2986848), wk =   0.0039062
        k(    6) = (  -0.0000000   0.1443376  -0.0000001), wk =   0.0078125
        k(    7) = (   0.0000000   0.1443376   0.0746711), wk =   0.0078125
        k(    8) = (   0.0000000   0.1443375   0.1493423), wk =   0.0078125
        k(    9) = (   0.0000000   0.1443375   0.2240135), wk =   0.0078125
        k(   10) = (  -0.0000000   0.1443377  -0.2986848), wk =   0.0078125
        k(   11) = (  -0.0000000   0.1443377  -0.2240137), wk =   0.0078125
        k(   12) = (  -0.0000000   0.1443377  -0.1493425), wk =   0.0078125
        k(   13) = (  -0.0000000   0.1443376  -0.0746713), wk =   0.0078125
        k(   14) = (  -0.0000000   0.2886752  -0.0000001), wk =   0.0078125
        k(   15) = (   0.0000000   0.2886752   0.0746711), wk =   0.0078125
        k(   16) = (   0.0000000   0.2886751   0.1493423), wk =   0.0078125
        k(   17) = (   0.0000000   0.2886751   0.2240135), wk =   0.0078125
        k(   18) = (  -0.0000000   0.2886753  -0.2986849), wk =   0.0078125
        k(   19) = (  -0.0000000   0.2886753  -0.2240137), wk =   0.0078125
        k(   20) = (  -0.0000000   0.2886752  -0.1493425), wk =   0.0078125
        k(   21) = (  -0.0000000   0.2886752  -0.0746713), wk =   0.0078125
        k(   22) = (  -0.0000000   0.4330128  -0.0000002), wk =   0.0078125
        k(   23) = (  -0.0000000   0.4330127   0.0746710), wk =   0.0078125
        k(   24) = (   0.0000000   0.4330127   0.1493422), wk =   0.0078125
        k(   25) = (   0.0000000   0.4330127   0.2240134), wk =   0.0078125
        k(   26) = (  -0.0000001   0.4330129  -0.2986850), wk =   0.0078125
        k(   27) = (  -0.0000000   0.4330129  -0.2240138), wk =   0.0078125
        k(   28) = (  -0.0000000   0.4330128  -0.1493426), wk =   0.0078125
        k(   29) = (  -0.0000000   0.4330128  -0.0746714), wk =   0.0078125
        k(   30) = (   0.0000000  -0.5773504   0.0000002), wk =   0.0039062
        k(   31) = (   0.0000000  -0.5773504   0.0746714), wk =   0.0078125
        k(   32) = (   0.0000000  -0.5773504   0.1493426), wk =   0.0078125
        k(   33) = (   0.0000000  -0.5773505   0.2240138), wk =   0.0078125
        k(   34) = (  -0.0000000  -0.5773502  -0.2986846), wk =   0.0039062
        k(   35) = (   0.1250000   0.0721688  -0.0000000), wk =   0.0078125
        k(   36) = (   0.1250000   0.0721688   0.0746712), wk =   0.0078125
        k(   37) = (   0.1250000   0.0721687   0.1493424), wk =   0.0078125
        k(   38) = (   0.1250000   0.0721687   0.2240136), wk =   0.0078125
        k(   39) = (   0.1250000   0.0721689  -0.2986848), wk =   0.0078125
        k(   40) = (   0.1250000   0.0721689  -0.2240136), wk =   0.0078125
        k(   41) = (   0.1250000   0.0721689  -0.1493424), wk =   0.0078125
        k(   42) = (   0.1250000   0.0721688  -0.0746712), wk =   0.0078125
        k(   43) = (   0.1250000   0.2165064  -0.0000001), wk =   0.0078125
        k(   44) = (   0.1250000   0.2165064   0.0746711), wk =   0.0078125
        k(   45) = (   0.1250000   0.2165063   0.1493423), wk =   0.0078125
        k(   46) = (   0.1250000   0.2165063   0.2240135), wk =   0.0078125
        k(   47) = (   0.1250000   0.2165065  -0.2986849), wk =   0.0078125
        k(   48) = (   0.1250000   0.2165065  -0.2240137), wk =   0.0078125
        k(   49) = (   0.1250000   0.2165064  -0.1493425), wk =   0.0078125
        k(   50) = (   0.1250000   0.2165064  -0.0746713), wk =   0.0078125
        k(   51) = (   0.1250000   0.3608440  -0.0000001), wk =   0.0078125
        k(   52) = (   0.1250000   0.3608439   0.0746711), wk =   0.0078125
        k(   53) = (   0.1250000   0.3608439   0.1493423), wk =   0.0078125
        k(   54) = (   0.1250000   0.3608439   0.2240135), wk =   0.0078125
        k(   55) = (   0.1250000   0.3608441  -0.2986849), wk =   0.0078125
        k(   56) = (   0.1250000   0.3608441  -0.2240137), wk =   0.0078125
        k(   57) = (   0.1250000   0.3608440  -0.1493425), wk =   0.0078125
        k(   58) = (   0.1250000   0.3608440  -0.0746713), wk =   0.0078125
        k(   59) = (   0.1250000   0.5051816  -0.0000002), wk =   0.0078125
        k(   60) = (   0.1250000   0.5051815   0.0746710), wk =   0.0078125
        k(   61) = (   0.1250000   0.5051815   0.1493422), wk =   0.0078125
        k(   62) = (   0.1250000   0.5051815   0.2240134), wk =   0.0078125
        k(   63) = (   0.1249999   0.5051817  -0.2986850), wk =   0.0078125
        k(   64) = (   0.1250000   0.5051817  -0.2240138), wk =   0.0078125
        k(   65) = (   0.1250000   0.5051816  -0.1493426), wk =   0.0078125
        k(   66) = (   0.1250000   0.5051816  -0.0746714), wk =   0.0078125
        k(   67) = (   0.1250000  -0.5051816   0.0000002), wk =   0.0078125
        k(   68) = (   0.1250000  -0.5051816   0.0746714), wk =   0.0078125
        k(   69) = (   0.1250000  -0.5051816   0.1493426), wk =   0.0078125
        k(   70) = (   0.1250000  -0.5051817   0.2240138), wk =   0.0078125
        k(   71) = (   0.1250000  -0.5051815  -0.2986846), wk =   0.0078125
        k(   72) = (   0.1250000  -0.5051815  -0.2240134), wk =   0.0078125
        k(   73) = (   0.1250000  -0.5051815  -0.1493422), wk =   0.0078125
        k(   74) = (   0.1250000  -0.5051815  -0.0746710), wk =   0.0078125
        k(   75) = (   0.1250000  -0.3608440   0.0000002), wk =   0.0078125
        k(   76) = (   0.1250000  -0.3608440   0.0746714), wk =   0.0078125
        k(   77) = (   0.1250000  -0.3608440   0.1493426), wk =   0.0078125
        k(   78) = (   0.1250000  -0.3608441   0.2240138), wk =   0.0078125
        k(   79) = (   0.1250000  -0.3608439  -0.2986846), wk =   0.0078125
        k(   80) = (   0.1250000  -0.3608439  -0.2240134), wk =   0.0078125
        k(   81) = (   0.1250000  -0.3608439  -0.1493422), wk =   0.0078125
        k(   82) = (   0.1250000  -0.3608440  -0.0746710), wk =   0.0078125
        k(   83) = (   0.1250000  -0.2165064   0.0000001), wk =   0.0078125
        k(   84) = (   0.1250000  -0.2165064   0.0746713), wk =   0.0078125
        k(   85) = (   0.1250000  -0.2165065   0.1493425), wk =   0.0078125
        k(   86) = (   0.1250000  -0.2165065   0.2240137), wk =   0.0078125
        k(   87) = (   0.1250000  -0.2165063  -0.2986847), wk =   0.0078125
        k(   88) = (   0.1250000  -0.2165063  -0.2240135), wk =   0.0078125
        k(   89) = (   0.1250000  -0.2165063  -0.1493423), wk =   0.0078125
        k(   90) = (   0.1250000  -0.2165064  -0.0746711), wk =   0.0078125
        k(   91) = (   0.1250000  -0.0721688   0.0000000), wk =   0.0078125
        k(   92) = (   0.1250000  -0.0721688   0.0746712), wk =   0.0078125
        k(   93) = (   0.1250000  -0.0721689   0.1493424), wk =   0.0078125
        k(   94) = (   0.1250000  -0.0721689   0.2240136), wk =   0.0078125
        k(   95) = (   0.1250000  -0.0721687  -0.2986847), wk =   0.0078125
        k(   96) = (   0.1250000  -0.0721687  -0.2240135), wk =   0.0078125
        k(   97) = (   0.1250000  -0.0721687  -0.1493424), wk =   0.0078125
        k(   98) = (   0.1250000  -0.0721688  -0.0746712), wk =   0.0078125
        k(   99) = (   0.2500000   0.1443376  -0.0000000), wk =   0.0078125
        k(  100) = (   0.2500000   0.1443376   0.0746712), wk =   0.0078125
        k(  101) = (   0.2500000   0.1443375   0.1493424), wk =   0.0078125
        k(  102) = (   0.2500000   0.1443375   0.2240136), wk =   0.0078125
        k(  103) = (   0.2500000   0.1443377  -0.2986848), wk =   0.0078125
        k(  104) = (   0.2500000   0.1443377  -0.2240136), wk =   0.0078125
        k(  105) = (   0.2500000   0.1443376  -0.1493424), wk =   0.0078125
        k(  106) = (   0.2500000   0.1443376  -0.0746712), wk =   0.0078125
        k(  107) = (   0.2500000   0.2886752  -0.0000001), wk =   0.0078125
        k(  108) = (   0.2500000   0.2886751   0.0746711), wk =   0.0078125
        k(  109) = (   0.2500000   0.2886751   0.1493423), wk =   0.0078125
        k(  110) = (   0.2500000   0.2886751   0.2240135), wk =   0.0078125
        k(  111) = (   0.2500000   0.2886753  -0.2986849), wk =   0.0078125
        k(  112) = (   0.2500000   0.2886753  -0.2240137), wk =   0.0078125
        k(  113) = (   0.2500000   0.2886752  -0.1493425), wk =   0.0078125
        k(  114) = (   0.2500000   0.2886752  -0.0746713), wk =   0.0078125
        k(  115) = (   0.2500000   0.4330128  -0.0000001), wk =   0.0078125
        k(  116) = (   0.2500000   0.4330127   0.0746710), wk =   0.0078125
        k(  117) = (   0.2500000   0.4330127   0.1493422), wk =   0.0078125
        k(  118) = (   0.2500000   0.4330127   0.2240134), wk =   0.0078125
        k(  119) = (   0.2499999   0.4330129  -0.2986849), wk =   0.0078125
        k(  120) = (   0.2500000   0.4330129  -0.2240137), wk =   0.0078125
        k(  121) = (   0.2500000   0.4330128  -0.1493425), wk =   0.0078125
        k(  122) = (   0.2500000   0.4330128  -0.0746713), wk =   0.0078125
        k(  123) = (   0.2500000   0.5773504  -0.0000002), wk =   0.0078125
        k(  124) = (   0.2500000   0.5773503   0.0746710), wk =   0.0078125
        k(  125) = (   0.2500000   0.5773503   0.1493422), wk =   0.0078125
        k(  126) = (   0.2500000   0.5773503   0.2240134), wk =   0.0078125
        k(  127) = (   0.2499999   0.5773505  -0.2986850), wk =   0.0078125
        k(  128) = (   0.2500000   0.5773505  -0.2240138), wk =   0.0078125
        k(  129) = (   0.2500000   0.5773504  -0.1493426), wk =   0.0078125
        k(  130) = (   0.2500000   0.5773504  -0.0746714), wk =   0.0078125
        k(  131) = (   0.2500000  -0.4330128   0.0000002), wk =   0.0078125
        k(  132) = (   0.2500000  -0.4330128   0.0746714), wk =   0.0078125
        k(  133) = (   0.2500000  -0.4330128   0.1493426), wk =   0.0078125
        k(  134) = (   0.2500000  -0.4330129   0.2240138), wk =   0.0078125
        k(  135) = (   0.2500000  -0.4330127  -0.2986846), wk =   0.0078125
        k(  136) = (   0.2500000  -0.4330127  -0.2240134), wk =   0.0078125
        k(  137) = (   0.2500000  -0.4330127  -0.1493422), wk =   0.0078125
        k(  138) = (   0.2500000  -0.4330128  -0.0746710), wk =   0.0078125
        k(  139) = (   0.2500000  -0.2886752   0.0000001), wk =   0.0078125
        k(  140) = (   0.2500000  -0.2886752   0.0746713), wk =   0.0078125
        k(  141) = (   0.2500000  -0.2886753   0.1493425), wk =   0.0078125
        k(  142) = (   0.2500000  -0.2886753   0.2240137), wk =   0.0078125
        k(  143) = (   0.2500000  -0.2886751  -0.2986846), wk =   0.0078125
        k(  144) = (   0.2500000  -0.2886751  -0.2240134), wk =   0.0078125
        k(  145) = (   0.2500000  -0.2886751  -0.1493423), wk =   0.0078125
        k(  146) = (   0.2500000  -0.2886752  -0.0746711), wk =   0.0078125
        k(  147) = (   0.2500000  -0.1443376   0.0000001), wk =   0.0078125
        k(  148) = (   0.2500000  -0.1443376   0.0746713), wk =   0.0078125
        k(  149) = (   0.2500000  -0.1443377   0.1493425), wk =   0.0078125
        k(  150) = (   0.2500000  -0.1443377   0.2240137), wk =   0.0078125
        k(  151) = (   0.2500000  -0.1443375  -0.2986847), wk =   0.0078125
        k(  152) = (   0.2500000  -0.1443375  -0.2240135), wk =   0.0078125
        k(  153) = (   0.2500000  -0.1443375  -0.1493423), wk =   0.0078125
        k(  154) = (   0.2500000  -0.1443376  -0.0746711), wk =   0.0078125
        k(  155) = (   0.2500000  -0.0000000   0.0000000), wk =   0.0078125
        k(  156) = (   0.2500000  -0.0000000   0.0746712), wk =   0.0078125
        k(  157) = (   0.2500000  -0.0000001   0.1493424), wk =   0.0078125
        k(  158) = (   0.2500000  -0.0000001   0.2240136), wk =   0.0078125
        k(  159) = (   0.2500000   0.0000001  -0.2986848), wk =   0.0078125
        k(  160) = (   0.2500000   0.0000001  -0.2240136), wk =   0.0078125
        k(  161) = (   0.2500000   0.0000001  -0.1493424), wk =   0.0078125
        k(  162) = (   0.2500000   0.0000000  -0.0746712), wk =   0.0078125
        k(  163) = (   0.3750000   0.2165064  -0.0000000), wk =   0.0078125
        k(  164) = (   0.3750000   0.2165063   0.0746712), wk =   0.0078125
        k(  165) = (   0.3750000   0.2165063   0.1493423), wk =   0.0078125
        k(  166) = (   0.3750000   0.2165063   0.2240135), wk =   0.0078125
        k(  167) = (   0.3750000   0.2165065  -0.2986848), wk =   0.0078125
        k(  168) = (   0.3750000   0.2165065  -0.2240136), wk =   0.0078125
        k(  169) = (   0.3750000   0.2165064  -0.1493424), wk =   0.0078125
        k(  170) = (   0.3750000   0.2165064  -0.0746712), wk =   0.0078125
        k(  171) = (   0.3750000   0.3608440  -0.0000001), wk =   0.0078125
        k(  172) = (   0.3750000   0.3608439   0.0746711), wk =   0.0078125
        k(  173) = (   0.3750000   0.3608439   0.1493423), wk =   0.0078125
        k(  174) = (   0.3750000   0.3608439   0.2240135), wk =   0.0078125
        k(  175) = (   0.3750000   0.3608441  -0.2986849), wk =   0.0078125
        k(  176) = (   0.3750000   0.3608441  -0.2240137), wk =   0.0078125
        k(  177) = (   0.3750000   0.3608440  -0.1493425), wk =   0.0078125
        k(  178) = (   0.3750000   0.3608440  -0.0746713), wk =   0.0078125
        k(  179) = (   0.3750000   0.5051816  -0.0000002), wk =   0.0078125
        k(  180) = (   0.3750000   0.5051815   0.0746710), wk =   0.0078125
        k(  181) = (   0.3750000   0.5051815   0.1493422), wk =   0.0078125
        k(  182) = (   0.3750000   0.5051815   0.2240134), wk =   0.0078125
        k(  183) = (   0.3749999   0.5051817  -0.2986850), wk =   0.0078125
        k(  184) = (   0.3750000   0.5051817  -0.2240138), wk =   0.0078125
        k(  185) = (   0.3750000   0.5051816  -0.1493426), wk =   0.0078125
        k(  186) = (   0.3750000   0.5051816  -0.0746714), wk =   0.0078125
        k(  187) = (   0.3750000   0.6495192  -0.0000002), wk =   0.0078125
        k(  188) = (   0.3750000   0.6495191   0.0746710), wk =   0.0078125
        k(  189) = (   0.3750000   0.6495191   0.1493422), wk =   0.0078125
        k(  190) = (   0.3750000   0.6495191   0.2240134), wk =   0.0078125
        k(  191) = (   0.3749999   0.6495193  -0.2986850), wk =   0.0078125
        k(  192) = (   0.3750000   0.6495192  -0.2240138), wk =   0.0078125
        k(  193) = (   0.3750000   0.6495192  -0.1493426), wk =   0.0078125
        k(  194) = (   0.3750000   0.6495192  -0.0746714), wk =   0.0078125
        k(  195) = (   0.3750000  -0.3608440   0.0000002), wk =   0.0078125
        k(  196) = (   0.3750000  -0.3608440   0.0746714), wk =   0.0078125
        k(  197) = (   0.3750000  -0.3608441   0.1493426), wk =   0.0078125
        k(  198) = (   0.3750000  -0.3608441   0.2240138), wk =   0.0078125
        k(  199) = (   0.3750000  -0.3608439  -0.2986846), wk =   0.0078125
        k(  200) = (   0.3750000  -0.3608439  -0.2240134), wk =   0.0078125
        k(  201) = (   0.3750000  -0.3608439  -0.1493422), wk =   0.0078125
        k(  202) = (   0.3750000  -0.3608440  -0.0746710), wk =   0.0078125
        k(  203) = (   0.3750000  -0.2165064   0.0000001), wk =   0.0078125
        k(  204) = (   0.3750000  -0.2165064   0.0746713), wk =   0.0078125
        k(  205) = (   0.3750000  -0.2165065   0.1493425), wk =   0.0078125
        k(  206) = (   0.3750000  -0.2165065   0.2240137), wk =   0.0078125
        k(  207) = (   0.3750000  -0.2165063  -0.2986847), wk =   0.0078125
        k(  208) = (   0.3750000  -0.2165063  -0.2240135), wk =   0.0078125
        k(  209) = (   0.3750000  -0.2165063  -0.1493423), wk =   0.0078125
        k(  210) = (   0.3750000  -0.2165064  -0.0746711), wk =   0.0078125
        k(  211) = (   0.3750000  -0.0721688   0.0000001), wk =   0.0078125
        k(  212) = (   0.3750000  -0.0721688   0.0746713), wk =   0.0078125
        k(  213) = (   0.3750000  -0.0721689   0.1493425), wk =   0.0078125
        k(  214) = (   0.3750000  -0.0721689   0.2240137), wk =   0.0078125
        k(  215) = (   0.3750000  -0.0721687  -0.2986847), wk =   0.0078125
        k(  216) = (   0.3750000  -0.0721687  -0.2240135), wk =   0.0078125
        k(  217) = (   0.3750000  -0.0721687  -0.1493423), wk =   0.0078125
        k(  218) = (   0.3750000  -0.0721688  -0.0746711), wk =   0.0078125
        k(  219) = (   0.3750000   0.0721688   0.0000000), wk =   0.0078125
        k(  220) = (   0.3750000   0.0721688   0.0746712), wk =   0.0078125
        k(  221) = (   0.3750000   0.0721687   0.1493424), wk =   0.0078125
        k(  222) = (   0.3750000   0.0721687   0.2240136), wk =   0.0078125
        k(  223) = (   0.3750000   0.0721689  -0.2986848), wk =   0.0078125
        k(  224) = (   0.3750000   0.0721689  -0.2240136), wk =   0.0078125
        k(  225) = (   0.3750000   0.0721688  -0.1493424), wk =   0.0078125
        k(  226) = (   0.3750000   0.0721688  -0.0746712), wk =   0.0078125
        k(  227) = (  -0.5000000  -0.2886752   0.0000001), wk =   0.0039062
        k(  228) = (  -0.5000000  -0.2886752   0.0746713), wk =   0.0078125
        k(  229) = (  -0.5000000  -0.2886752   0.1493425), wk =   0.0078125
        k(  230) = (  -0.5000000  -0.2886753   0.2240137), wk =   0.0078125
        k(  231) = (  -0.5000000  -0.2886750  -0.2986847), wk =   0.0039062
        k(  232) = (  -0.5000000  -0.1443376   0.0000000), wk =   0.0078125
        k(  233) = (  -0.5000000  -0.1443376   0.0746712), wk =   0.0078125
        k(  234) = (  -0.5000000  -0.1443376   0.1493424), wk =   0.0078125
        k(  235) = (  -0.5000000  -0.1443377   0.2240136), wk =   0.0078125
        k(  236) = (  -0.5000000  -0.1443375  -0.2986848), wk =   0.0078125
        k(  237) = (  -0.5000000  -0.1443375  -0.2240136), wk =   0.0078125
        k(  238) = (  -0.5000000  -0.1443375  -0.1493424), wk =   0.0078125
        k(  239) = (  -0.5000000  -0.1443375  -0.0746712), wk =   0.0078125
        k(  240) = (  -0.5000000   0.0000000  -0.0000001), wk =   0.0078125
        k(  241) = (  -0.5000000  -0.0000000   0.0746711), wk =   0.0078125
        k(  242) = (  -0.5000000  -0.0000000   0.1493423), wk =   0.0078125
        k(  243) = (  -0.5000000  -0.0000001   0.2240135), wk =   0.0078125
        k(  244) = (  -0.5000000   0.0000001  -0.2986848), wk =   0.0078125
        k(  245) = (  -0.5000000   0.0000001  -0.2240136), wk =   0.0078125
        k(  246) = (  -0.5000000   0.0000001  -0.1493424), wk =   0.0078125
        k(  247) = (  -0.5000000   0.0000000  -0.0746713), wk =   0.0078125
        k(  248) = (  -0.5000000   0.1443376  -0.0000001), wk =   0.0078125
        k(  249) = (  -0.5000000   0.1443376   0.0746711), wk =   0.0078125
        k(  250) = (  -0.5000000   0.1443375   0.1493423), wk =   0.0078125
        k(  251) = (  -0.5000000   0.1443375   0.2240135), wk =   0.0078125
        k(  252) = (  -0.5000000   0.1443377  -0.2986849), wk =   0.0078125
        k(  253) = (  -0.5000000   0.1443377  -0.2240137), wk =   0.0078125
        k(  254) = (  -0.5000000   0.1443377  -0.1493425), wk =   0.0078125
        k(  255) = (  -0.5000000   0.1443376  -0.0746713), wk =   0.0078125
        k(  256) = (  -0.5000000  -0.8660255   0.0000003), wk =   0.0039062
        k(  257) = (  -0.5000000  -0.8660256   0.0746715), wk =   0.0078125
        k(  258) = (  -0.5000000  -0.8660256   0.1493427), wk =   0.0078125
        k(  259) = (  -0.4999999  -0.8660256   0.2240139), wk =   0.0078125
        k(  260) = (  -0.5000000  -0.8660254  -0.2986845), wk =   0.0039062

                       cryst. coord.
        k(    1) = (   0.0000000   0.0000000   0.0000000), wk =   0.0039062
        k(    2) = (  -0.0000000   0.0000000   0.1250000), wk =   0.0078125
        k(    3) = (  -0.0000000   0.0000000   0.2500000), wk =   0.0078125
        k(    4) = (  -0.0000000   0.0000000   0.3750000), wk =   0.0078125
        k(    5) = (   0.0000000  -0.0000000  -0.5000000), wk =   0.0039062
        k(    6) = (  -0.0000000   0.1250000  -0.0000000), wk =   0.0078125
        k(    7) = (  -0.0000000   0.1250000   0.1250000), wk =   0.0078125
        k(    8) = (  -0.0000000   0.1250000   0.2500000), wk =   0.0078125
        k(    9) = (  -0.0000000   0.1250000   0.3750000), wk =   0.0078125
        k(   10) = (   0.0000000   0.1250000  -0.5000000), wk =   0.0078125
        k(   11) = (   0.0000000   0.1250000  -0.3750000), wk =   0.0078125
        k(   12) = (   0.0000000   0.1250000  -0.2500000), wk =   0.0078125
        k(   13) = (   0.0000000   0.1250000  -0.1250000), wk =   0.0078125
        k(   14) = (  -0.0000000   0.2500000  -0.0000000), wk =   0.0078125
        k(   15) = (  -0.0000000   0.2500000   0.1250000), wk =   0.0078125
        k(   16) = (  -0.0000000   0.2500000   0.2500000), wk =   0.0078125
        k(   17) = (  -0.0000000   0.2500000   0.3750000), wk =   0.0078125
        k(   18) = (   0.0000000   0.2500000  -0.5000000), wk =   0.0078125
        k(   19) = (  -0.0000000   0.2500000  -0.3750000), wk =   0.0078125
        k(   20) = (   0.0000000   0.2500000  -0.2500000), wk =   0.0078125
        k(   21) = (  -0.0000000   0.2500000  -0.1250000), wk =   0.0078125
        k(   22) = (  -0.0000000   0.3750000  -0.0000000), wk =   0.0078125
        k(   23) = (  -0.0000000   0.3750000   0.1250000), wk =   0.0078125
        k(   24) = (  -0.0000000   0.3750000   0.2500000), wk =   0.0078125
        k(   25) = (  -0.0000000   0.3750000   0.3750000), wk =   0.0078125
        k(   26) = (   0.0000000   0.3750000  -0.5000000), wk =   0.0078125
        k(   27) = (  -0.0000000   0.3750000  -0.3750000), wk =   0.0078125
        k(   28) = (   0.0000000   0.3750000  -0.2500000), wk =   0.0078125
        k(   29) = (  -0.0000000   0.3750000  -0.1250000), wk =   0.0078125
        k(   30) = (   0.0000000  -0.5000000   0.0000000), wk =   0.0039062
        k(   31) = (   0.0000000  -0.5000000   0.1250000), wk =   0.0078125
        k(   32) = (   0.0000000  -0.5000000   0.2500000), wk =   0.0078125
        k(   33) = (  -0.0000000  -0.5000000   0.3750000), wk =   0.0078125
        k(   34) = (   0.0000000  -0.5000000  -0.5000000), wk =   0.0039062
        k(   35) = (   0.1250000  -0.0000000  -0.0000000), wk =   0.0078125
        k(   36) = (   0.1250000  -0.0000000   0.1250000), wk =   0.0078125
        k(   37) = (   0.1250000   0.0000000   0.2500000), wk =   0.0078125
        k(   38) = (   0.1250000  -0.0000000   0.3750000), wk =   0.0078125
        k(   39) = (   0.1250000   0.0000000  -0.5000000), wk =   0.0078125
        k(   40) = (   0.1250000  -0.0000000  -0.3750000), wk =   0.0078125
        k(   41) = (   0.1250000  -0.0000000  -0.2500000), wk =   0.0078125
        k(   42) = (   0.1250000   0.0000000  -0.1250000), wk =   0.0078125
        k(   43) = (   0.1250000   0.1250000  -0.0000000), wk =   0.0078125
        k(   44) = (   0.1250000   0.1250000   0.1250000), wk =   0.0078125
        k(   45) = (   0.1250000   0.1250000   0.2500000), wk =   0.0078125
        k(   46) = (   0.1250000   0.1250000   0.3750000), wk =   0.0078125
        k(   47) = (   0.1250000   0.1250000  -0.5000000), wk =   0.0078125
        k(   48) = (   0.1250000   0.1250000  -0.3750000), wk =   0.0078125
        k(   49) = (   0.1250000   0.1250000  -0.2500000), wk =   0.0078125
        k(   50) = (   0.1250000   0.1250000  -0.1250000), wk =   0.0078125
        k(   51) = (   0.1250000   0.2500000  -0.0000000), wk =   0.0078125
        k(   52) = (   0.1250000   0.2500000   0.1250000), wk =   0.0078125
        k(   53) = (   0.1250000   0.2500000   0.2500000), wk =   0.0078125
        k(   54) = (   0.1250000   0.2500000   0.3750000), wk =   0.0078125
        k(   55) = (   0.1250000   0.2500000  -0.5000000), wk =   0.0078125
        k(   56) = (   0.1250000   0.2500000  -0.3750000), wk =   0.0078125
        k(   57) = (   0.1250000   0.2500000  -0.2500000), wk =   0.0078125
        k(   58) = (   0.1250000   0.2500000  -0.1250000), wk =   0.0078125
        k(   59) = (   0.1250000   0.3750000  -0.0000000), wk =   0.0078125
        k(   60) = (   0.1250000   0.3750000   0.1250000), wk =   0.0078125
        k(   61) = (   0.1250000   0.3750000   0.2500000), wk =   0.0078125
        k(   62) = (   0.1250000   0.3750000   0.3750000), wk =   0.0078125
        k(   63) = (   0.1250000   0.3750000  -0.5000000), wk =   0.0078125
        k(   64) = (   0.1250000   0.3750000  -0.3750000), wk =   0.0078125
        k(   65) = (   0.1250000   0.3750000  -0.2500000), wk =   0.0078125
        k(   66) = (   0.1250000   0.3750000  -0.1250000), wk =   0.0078125
        k(   67) = (   0.1250000  -0.5000000   0.0000000), wk =   0.0078125
        k(   68) = (   0.1250000  -0.5000000   0.1250000), wk =   0.0078125
        k(   69) = (   0.1250000  -0.5000000   0.2500000), wk =   0.0078125
        k(   70) = (   0.1250000  -0.5000000   0.3750000), wk =   0.0078125
        k(   71) = (   0.1250000  -0.5000000  -0.5000000), wk =   0.0078125
        k(   72) = (   0.1250000  -0.5000000  -0.3750000), wk =   0.0078125
        k(   73) = (   0.1250000  -0.5000000  -0.2500000), wk =   0.0078125
        k(   74) = (   0.1250000  -0.5000000  -0.1250000), wk =   0.0078125
        k(   75) = (   0.1250000  -0.3750000   0.0000000), wk =   0.0078125
        k(   76) = (   0.1250000  -0.3750000   0.1250000), wk =   0.0078125
        k(   77) = (   0.1250000  -0.3750000   0.2500000), wk =   0.0078125
        k(   78) = (   0.1250000  -0.3750000   0.3750000), wk =   0.0078125
        k(   79) = (   0.1250000  -0.3750000  -0.5000000), wk =   0.0078125
        k(   80) = (   0.1250000  -0.3750000  -0.3750000), wk =   0.0078125
        k(   81) = (   0.1250000  -0.3750000  -0.2500000), wk =   0.0078125
        k(   82) = (   0.1250000  -0.3750000  -0.1250000), wk =   0.0078125
        k(   83) = (   0.1250000  -0.2500000   0.0000000), wk =   0.0078125
        k(   84) = (   0.1250000  -0.2500000   0.1250000), wk =   0.0078125
        k(   85) = (   0.1250000  -0.2500000   0.2500000), wk =   0.0078125
        k(   86) = (   0.1250000  -0.2500000   0.3750000), wk =   0.0078125
        k(   87) = (   0.1250000  -0.2500000  -0.5000000), wk =   0.0078125
        k(   88) = (   0.1250000  -0.2500000  -0.3750000), wk =   0.0078125
        k(   89) = (   0.1250000  -0.2500000  -0.2500000), wk =   0.0078125
        k(   90) = (   0.1250000  -0.2500000  -0.1250000), wk =   0.0078125
        k(   91) = (   0.1250000  -0.1250000   0.0000000), wk =   0.0078125
        k(   92) = (   0.1250000  -0.1250000   0.1250000), wk =   0.0078125
        k(   93) = (   0.1250000  -0.1250000   0.2500000), wk =   0.0078125
        k(   94) = (   0.1250000  -0.1250000   0.3750000), wk =   0.0078125
        k(   95) = (   0.1250000  -0.1250000  -0.5000000), wk =   0.0078125
        k(   96) = (   0.1250000  -0.1250000  -0.3750000), wk =   0.0078125
        k(   97) = (   0.1250000  -0.1250000  -0.2500000), wk =   0.0078125
        k(   98) = (   0.1250000  -0.1250000  -0.1250000), wk =   0.0078125
        k(   99) = (   0.2500000  -0.0000000  -0.0000000), wk =   0.0078125
        k(  100) = (   0.2500000  -0.0000000   0.1250000), wk =   0.0078125
        k(  101) = (   0.2500000  -0.0000000   0.2500000), wk =   0.0078125
        k(  102) = (   0.2500000  -0.0000000   0.3750000), wk =   0.0078125
        k(  103) = (   0.2500000  -0.0000000  -0.5000000), wk =   0.0078125
        k(  104) = (   0.2500000  -0.0000000  -0.3750000), wk =   0.0078125
        k(  105) = (   0.2500000   0.0000000  -0.2500000), wk =   0.0078125
        k(  106) = (   0.2500000   0.0000000  -0.1250000), wk =   0.0078125
        k(  107) = (   0.2500000   0.1250000  -0.0000000), wk =   0.0078125
        k(  108) = (   0.2500000   0.1250000   0.1250000), wk =   0.0078125
        k(  109) = (   0.2500000   0.1250000   0.2500000), wk =   0.0078125
        k(  110) = (   0.2500000   0.1250000   0.3750000), wk =   0.0078125
        k(  111) = (   0.2500000   0.1250000  -0.5000000), wk =   0.0078125
        k(  112) = (   0.2500000   0.1250000  -0.3750000), wk =   0.0078125
        k(  113) = (   0.2500000   0.1250000  -0.2500000), wk =   0.0078125
        k(  114) = (   0.2500000   0.1250000  -0.1250000), wk =   0.0078125
        k(  115) = (   0.2500000   0.2500000  -0.0000000), wk =   0.0078125
        k(  116) = (   0.2500000   0.2500000   0.1250000), wk =   0.0078125
        k(  117) = (   0.2500000   0.2500000   0.2500000), wk =   0.0078125
        k(  118) = (   0.2500000   0.2500000   0.3750000), wk =   0.0078125
        k(  119) = (   0.2500000   0.2500000  -0.5000000), wk =   0.0078125
        k(  120) = (   0.2500000   0.2500000  -0.3750000), wk =   0.0078125
        k(  121) = (   0.2500000   0.2500000  -0.2500000), wk =   0.0078125
        k(  122) = (   0.2500000   0.2500000  -0.1250000), wk =   0.0078125
        k(  123) = (   0.2500000   0.3750000  -0.0000000), wk =   0.0078125
        k(  124) = (   0.2500000   0.3750000   0.1250000), wk =   0.0078125
        k(  125) = (   0.2500000   0.3750000   0.2500000), wk =   0.0078125
        k(  126) = (   0.2500000   0.3750000   0.3750000), wk =   0.0078125
        k(  127) = (   0.2500000   0.3750000  -0.5000000), wk =   0.0078125
        k(  128) = (   0.2500000   0.3750000  -0.3750000), wk =   0.0078125
        k(  129) = (   0.2500000   0.3750000  -0.2500000), wk =   0.0078125
        k(  130) = (   0.2500000   0.3750000  -0.1250000), wk =   0.0078125
        k(  131) = (   0.2500000  -0.5000000   0.0000000), wk =   0.0078125
        k(  132) = (   0.2500000  -0.5000000   0.1250000), wk =   0.0078125
        k(  133) = (   0.2500000  -0.5000000   0.2500000), wk =   0.0078125
        k(  134) = (   0.2500000  -0.5000000   0.3750000), wk =   0.0078125
        k(  135) = (   0.2500000  -0.5000000  -0.5000000), wk =   0.0078125
        k(  136) = (   0.2500000  -0.5000000  -0.3750000), wk =   0.0078125
        k(  137) = (   0.2500000  -0.5000000  -0.2500000), wk =   0.0078125
        k(  138) = (   0.2500000  -0.5000000  -0.1250000), wk =   0.0078125
        k(  139) = (   0.2500000  -0.3750000   0.0000000), wk =   0.0078125
        k(  140) = (   0.2500000  -0.3750000   0.1250000), wk =   0.0078125
        k(  141) = (   0.2500000  -0.3750000   0.2500000), wk =   0.0078125
        k(  142) = (   0.2500000  -0.3750000   0.3750000), wk =   0.0078125
        k(  143) = (   0.2500000  -0.3750000  -0.5000000), wk =   0.0078125
        k(  144) = (   0.2500000  -0.3750000  -0.3750000), wk =   0.0078125
        k(  145) = (   0.2500000  -0.3750000  -0.2500000), wk =   0.0078125
        k(  146) = (   0.2500000  -0.3750000  -0.1250000), wk =   0.0078125
        k(  147) = (   0.2500000  -0.2500000   0.0000000), wk =   0.0078125
        k(  148) = (   0.2500000  -0.2500000   0.1250000), wk =   0.0078125
        k(  149) = (   0.2500000  -0.2500000   0.2500000), wk =   0.0078125
        k(  150) = (   0.2500000  -0.2500000   0.3750000), wk =   0.0078125
        k(  151) = (   0.2500000  -0.2500000  -0.5000000), wk =   0.0078125
        k(  152) = (   0.2500000  -0.2500000  -0.3750000), wk =   0.0078125
        k(  153) = (   0.2500000  -0.2500000  -0.2500000), wk =   0.0078125
        k(  154) = (   0.2500000  -0.2500000  -0.1250000), wk =   0.0078125
        k(  155) = (   0.2500000  -0.1250000   0.0000000), wk =   0.0078125
        k(  156) = (   0.2500000  -0.1250000   0.1250000), wk =   0.0078125
        k(  157) = (   0.2500000  -0.1250000   0.2500000), wk =   0.0078125
        k(  158) = (   0.2500000  -0.1250000   0.3750000), wk =   0.0078125
        k(  159) = (   0.2500000  -0.1250000  -0.5000000), wk =   0.0078125
        k(  160) = (   0.2500000  -0.1250000  -0.3750000), wk =   0.0078125
        k(  161) = (   0.2500000  -0.1250000  -0.2500000), wk =   0.0078125
        k(  162) = (   0.2500000  -0.1250000  -0.1250000), wk =   0.0078125
        k(  163) = (   0.3750000  -0.0000000  -0.0000000), wk =   0.0078125
        k(  164) = (   0.3750000  -0.0000000   0.1250000), wk =   0.0078125
        k(  165) = (   0.3750000  -0.0000000   0.2500000), wk =   0.0078125
        k(  166) = (   0.3750000  -0.0000000   0.3750000), wk =   0.0078125
        k(  167) = (   0.3750000  -0.0000000  -0.5000000), wk =   0.0078125
        k(  168) = (   0.3750000  -0.0000000  -0.3750000), wk =   0.0078125
        k(  169) = (   0.3750000  -0.0000000  -0.2500000), wk =   0.0078125
        k(  170) = (   0.3750000  -0.0000000  -0.1250000), wk =   0.0078125
        k(  171) = (   0.3750000   0.1250000  -0.0000000), wk =   0.0078125
        k(  172) = (   0.3750000   0.1250000   0.1250000), wk =   0.0078125
        k(  173) = (   0.3750000   0.1250000   0.2500000), wk =   0.0078125
        k(  174) = (   0.3750000   0.1250000   0.3750000), wk =   0.0078125
        k(  175) = (   0.3750000   0.1250000  -0.5000000), wk =   0.0078125
        k(  176) = (   0.3750000   0.1250000  -0.3750000), wk =   0.0078125
        k(  177) = (   0.3750000   0.1250000  -0.2500000), wk =   0.0078125
        k(  178) = (   0.3750000   0.1250000  -0.1250000), wk =   0.0078125
        k(  179) = (   0.3750000   0.2500000  -0.0000000), wk =   0.0078125
        k(  180) = (   0.3750000   0.2500000   0.1250000), wk =   0.0078125
        k(  181) = (   0.3750000   0.2500000   0.2500000), wk =   0.0078125
        k(  182) = (   0.3750000   0.2500000   0.3750000), wk =   0.0078125
        k(  183) = (   0.3750000   0.2500000  -0.5000000), wk =   0.0078125
        k(  184) = (   0.3750000   0.2500000  -0.3750000), wk =   0.0078125
        k(  185) = (   0.3750000   0.2500000  -0.2500000), wk =   0.0078125
        k(  186) = (   0.3750000   0.2500000  -0.1250000), wk =   0.0078125
        k(  187) = (   0.3750000   0.3750000  -0.0000000), wk =   0.0078125
        k(  188) = (   0.3750000   0.3750000   0.1250000), wk =   0.0078125
        k(  189) = (   0.3750000   0.3750000   0.2500000), wk =   0.0078125
        k(  190) = (   0.3750000   0.3750000   0.3750000), wk =   0.0078125
        k(  191) = (   0.3750000   0.3750000  -0.5000000), wk =   0.0078125
        k(  192) = (   0.3750000   0.3750000  -0.3750000), wk =   0.0078125
        k(  193) = (   0.3750000   0.3750000  -0.2500000), wk =   0.0078125
        k(  194) = (   0.3750000   0.3750000  -0.1250000), wk =   0.0078125
        k(  195) = (   0.3750000  -0.5000000   0.0000000), wk =   0.0078125
        k(  196) = (   0.3750000  -0.5000000   0.1250000), wk =   0.0078125
        k(  197) = (   0.3750000  -0.5000000   0.2500000), wk =   0.0078125
        k(  198) = (   0.3750000  -0.5000000   0.3750000), wk =   0.0078125
        k(  199) = (   0.3750000  -0.5000000  -0.5000000), wk =   0.0078125
        k(  200) = (   0.3750000  -0.5000000  -0.3750000), wk =   0.0078125
        k(  201) = (   0.3750000  -0.5000000  -0.2500000), wk =   0.0078125
        k(  202) = (   0.3750000  -0.5000000  -0.1250000), wk =   0.0078125
        k(  203) = (   0.3750000  -0.3750000   0.0000000), wk =   0.0078125
        k(  204) = (   0.3750000  -0.3750000   0.1250000), wk =   0.0078125
        k(  205) = (   0.3750000  -0.3750000   0.2500000), wk =   0.0078125
        k(  206) = (   0.3750000  -0.3750000   0.3750000), wk =   0.0078125
        k(  207) = (   0.3750000  -0.3750000  -0.5000000), wk =   0.0078125
        k(  208) = (   0.3750000  -0.3750000  -0.3750000), wk =   0.0078125
        k(  209) = (   0.3750000  -0.3750000  -0.2500000), wk =   0.0078125
        k(  210) = (   0.3750000  -0.3750000  -0.1250000), wk =   0.0078125
        k(  211) = (   0.3750000  -0.2500000   0.0000000), wk =   0.0078125
        k(  212) = (   0.3750000  -0.2500000   0.1250000), wk =   0.0078125
        k(  213) = (   0.3750000  -0.2500000   0.2500000), wk =   0.0078125
        k(  214) = (   0.3750000  -0.2500000   0.3750000), wk =   0.0078125
        k(  215) = (   0.3750000  -0.2500000  -0.5000000), wk =   0.0078125
        k(  216) = (   0.3750000  -0.2500000  -0.3750000), wk =   0.0078125
        k(  217) = (   0.3750000  -0.2500000  -0.2500000), wk =   0.0078125
        k(  218) = (   0.3750000  -0.2500000  -0.1250000), wk =   0.0078125
        k(  219) = (   0.3750000  -0.1250000   0.0000000), wk =   0.0078125
        k(  220) = (   0.3750000  -0.1250000   0.1250000), wk =   0.0078125
        k(  221) = (   0.3750000  -0.1250000   0.2500000), wk =   0.0078125
        k(  222) = (   0.3750000  -0.1250000   0.3750000), wk =   0.0078125
        k(  223) = (   0.3750000  -0.1250000  -0.5000000), wk =   0.0078125
        k(  224) = (   0.3750000  -0.1250000  -0.3750000), wk =   0.0078125
        k(  225) = (   0.3750000  -0.1250000  -0.2500000), wk =   0.0078125
        k(  226) = (   0.3750000  -0.1250000  -0.1250000), wk =   0.0078125
        k(  227) = (  -0.5000000   0.0000000   0.0000000), wk =   0.0039062
        k(  228) = (  -0.5000000   0.0000000   0.1250000), wk =   0.0078125
        k(  229) = (  -0.5000000  -0.0000000   0.2500000), wk =   0.0078125
        k(  230) = (  -0.5000000   0.0000000   0.3750000), wk =   0.0078125
        k(  231) = (  -0.5000000   0.0000000  -0.5000000), wk =   0.0039062
        k(  232) = (  -0.5000000   0.1250000  -0.0000000), wk =   0.0078125
        k(  233) = (  -0.5000000   0.1250000   0.1250000), wk =   0.0078125
        k(  234) = (  -0.5000000   0.1250000   0.2500000), wk =   0.0078125
        k(  235) = (  -0.5000000   0.1250000   0.3750000), wk =   0.0078125
        k(  236) = (  -0.5000000   0.1250000  -0.5000000), wk =   0.0078125
        k(  237) = (  -0.5000000   0.1250000  -0.3750000), wk =   0.0078125
        k(  238) = (  -0.5000000   0.1250000  -0.2500000), wk =   0.0078125
        k(  239) = (  -0.5000000   0.1250000  -0.1250000), wk =   0.0078125
        k(  240) = (  -0.5000000   0.2500000  -0.0000000), wk =   0.0078125
        k(  241) = (  -0.5000000   0.2500000   0.1250000), wk =   0.0078125
        k(  242) = (  -0.5000000   0.2500000   0.2500000), wk =   0.0078125
        k(  243) = (  -0.5000000   0.2500000   0.3750000), wk =   0.0078125
        k(  244) = (  -0.5000000   0.2500000  -0.5000000), wk =   0.0078125
        k(  245) = (  -0.5000000   0.2500000  -0.3750000), wk =   0.0078125
        k(  246) = (  -0.5000000   0.2500000  -0.2500000), wk =   0.0078125
        k(  247) = (  -0.5000000   0.2500000  -0.1250000), wk =   0.0078125
        k(  248) = (  -0.5000000   0.3750000  -0.0000000), wk =   0.0078125
        k(  249) = (  -0.5000000   0.3750000   0.1250000), wk =   0.0078125
        k(  250) = (  -0.5000000   0.3750000   0.2500000), wk =   0.0078125
        k(  251) = (  -0.5000000   0.3750000   0.3750000), wk =   0.0078125
        k(  252) = (  -0.5000000   0.3750000  -0.5000000), wk =   0.0078125
        k(  253) = (  -0.5000000   0.3750000  -0.3750000), wk =   0.0078125
        k(  254) = (  -0.5000000   0.3750000  -0.2500000), wk =   0.0078125
        k(  255) = (  -0.5000000   0.3750000  -0.1250000), wk =   0.0078125
        k(  256) = (  -0.5000000  -0.5000000   0.0000000), wk =   0.0039062
        k(  257) = (  -0.5000000  -0.5000000   0.1250000), wk =   0.0078125
        k(  258) = (  -0.5000000  -0.5000000   0.2500000), wk =   0.0078125
        k(  259) = (  -0.5000000  -0.5000000   0.3750000), wk =   0.0078125
        k(  260) = (  -0.5000000  -0.5000000  -0.5000000), wk =   0.0039062

     Dense  grid:    79537 G-vectors     FFT dimensions: (  48,  48,  80)

     Smooth grid:    30981 G-vectors     FFT dimensions: (  36,  36,  60)

     Dynamical RAM for                 wfc:       0.08 MB

     Dynamical RAM for     wfc (w. buffer):       5.12 MB

     Dynamical RAM for           str. fact:       0.23 MB

     Dynamical RAM for           local pot:       0.00 MB

     Dynamical RAM for          nlocal pot:       0.23 MB

     Dynamical RAM for                qrad:       7.57 MB

     Dynamical RAM for          rho,v,vnew:       0.49 MB

     Dynamical RAM for               rhoin:       0.16 MB

     Dynamical RAM for            rho*nmix:       1.21 MB

     Dynamical RAM for           G-vectors:       0.30 MB

     Dynamical RAM for          h,s,v(r/c):       0.08 MB

     Dynamical RAM for          <psi|beta>:       0.02 MB

     Dynamical RAM for                 psi:       0.31 MB

     Dynamical RAM for                hpsi:       0.31 MB

     Dynamical RAM for                spsi:       0.31 MB

     Dynamical RAM for      wfcinit/wfcrot:       0.21 MB

     Dynamical RAM for           addusdens:       3.98 MB

     Dynamical RAM for          addusforce:       4.13 MB

     Dynamical RAM for         addusstress:       4.20 MB

     Estimated static dynamical RAM per process >      16.05 MB

     Estimated max dynamical RAM per process >      20.25 MB

     Estimated total dynamical RAM >       1.27 GB

     Check: negative core charge=   -0.000003

     Initial potential from superposition of free atoms

     starting charge   41.69964, renormalised to   42.00000
     Starting wfcs are   26 randomized atomic wfcs

     total cpu time spent up to now is        4.5 secs

     Self-consistent Calculation

     iteration #  1     ecut=    80.00 Ry     beta= 0.50
     Davidson diagonalization with overlap
     ethr =  1.00E-02,  avg # of iterations =  2.0

     total cpu time spent up to now is        5.5 secs

     total energy              =    -650.61176510 Ry
     Harris-Foulkes estimate   =    -651.46288453 Ry
     estimated scf accuracy    <       1.27505144 Ry

     iteration #  2     ecut=    80.00 Ry     beta= 0.50
     Davidson diagonalization with overlap
     ethr =  3.04E-03,  avg # of iterations =  3.0

     total cpu time spent up to now is        6.6 secs

     total energy              =    -651.00712113 Ry
     Harris-Foulkes estimate   =    -651.30211353 Ry
     estimated scf accuracy    <       0.67535586 Ry

     iteration #  3     ecut=    80.00 Ry     beta= 0.50
     Davidson diagonalization with overlap
     ethr =  1.61E-03,  avg # of iterations =  2.0

     total cpu time spent up to now is        7.5 secs

     total energy              =    -651.12323384 Ry
     Harris-Foulkes estimate   =    -651.12666560 Ry
     estimated scf accuracy    <       0.01031507 Ry

     iteration #  4     ecut=    80.00 Ry     beta= 0.50
     Davidson diagonalization with overlap
     ethr =  2.46E-05,  avg # of iterations =  2.1

     total cpu time spent up to now is        8.4 secs

     total energy              =    -651.12417239 Ry
     Harris-Foulkes estimate   =    -651.12497973 Ry
     estimated scf accuracy    <       0.00209853 Ry

     iteration #  5     ecut=    80.00 Ry     beta= 0.50
     Davidson diagonalization with overlap
     ethr =  5.00E-06,  avg # of iterations =  2.6

     total cpu time spent up to now is        9.3 secs

     total energy              =    -651.12449545 Ry
     Harris-Foulkes estimate   =    -651.12456848 Ry
     estimated scf accuracy    <       0.00018634 Ry

     iteration #  6     ecut=    80.00 Ry     beta= 0.50
     Davidson diagonalization with overlap
     ethr =  4.44E-07,  avg # of iterations =  2.8

     total cpu time spent up to now is       10.3 secs

     total energy              =    -651.12454110 Ry
     Harris-Foulkes estimate   =    -651.12455173 Ry
     estimated scf accuracy    <       0.00004337 Ry

     iteration #  7     ecut=    80.00 Ry     beta= 0.50
     Davidson diagonalization with overlap
     ethr =  1.03E-07,  avg # of iterations =  2.4

     total cpu time spent up to now is       11.3 secs

     total energy              =    -651.12454823 Ry
     Harris-Foulkes estimate   =    -651.12454719 Ry
     estimated scf accuracy    <       0.00000164 Ry

     iteration #  8     ecut=    80.00 Ry     beta= 0.50
     Davidson diagonalization with overlap
     ethr =  3.89E-09,  avg # of iterations =  2.0

     total cpu time spent up to now is       12.1 secs

     End of self-consistent calculation

          k = 0.0000 0.0000 0.0000 (  3863 PWs)   bands (ev):

  -115.8869 -70.2509 -70.2509 -70.2291 -65.4113 -32.3878 -32.3878 -32.3851
   -10.4206  -9.6566   1.7605   1.7902   1.7902   2.1841   2.6940   2.6940
     5.7428   5.7428   6.5057   6.8640   6.8640

     occupation numbers 
     1.0000   1.0000   1.0000   1.0000   1.0000   1.0000   1.0000   1.0000
     1.0000   1.0000   1.0000   1.0000   1.0000   1.0000   1.0000   1.0000
     1.0000   1.0000   1.0000   1.0000   1.0000

          k = 0.0000-0.0000 0.0747 (  3881 PWs)   bands (ev):

  -115.8869 -70.2509 -70.2509 -70.2291 -65.4113 -32.3878 -32.3878 -32.3851
   -10.3976  -9.6832   1.6637   1.7899   1.7899   2.3319   2.6925   2.6925
     5.7514   5.7514   6.2934   6.8581   6.8581

     occupation numbers 
     1.0000   1.0000   1.0000   1.0000   1.0000   1.0000   1.0000   1.0000
     1.0000   1.0000   1.0000   1.0000   1.0000   1.0000   1.0000   1.0000
     1.0000   1.0000   1.0000   1.0000   1.0000

          k = 0.0000-0.0000 0.1493 (  3887 PWs)   bands (ev):

  -115.8869 -70.2509 -70.2509 -70.2291 -65.4113 -32.3878 -32.3878 -32.3851
   -10.3337  -9.7560   1.5281   1.7890   1.7890   2.6015   2.6889   2.6889
     5.7727   5.7727   5.8781   6.8436   6.8436

     occupation numbers 
     1.0000   1.0000   1.0000   1.0000   1.0000   1.0000   1.0000   1.0000
     1.0000   1.0000   1.0000   1.0000   1.0000   1.0000   1.0000   1.0000
     1.0000   1.0000   1.0000   1.0000   1.0000

          k = 0.0000-0.0000 0.2240 (  3875 PWs)   bands (ev):

  -115.8869 -70.2509 -70.2509 -70.2291 -65.4113 -32.3878 -32.3878 -32.3851
   -10.2477  -9.8507   1.4394   1.7882   1.7882   2.6853   2.6854   2.8456
     5.5177   5.7945   5.7945   6.8285   6.8285

     occupation numbers 
     1.0000   1.0000   1.0000   1.0000   1.0000   1.0000   1.0000   1.0000
     1.0000   1.0000   1.0000   1.0000   1.0000   1.0000   1.0000   1.0000
     1.0000   1.0000   1.0000   1.0000   1.0000

          k =-0.0000 0.0000-0.2987 (  3892 PWs)   bands (ev):

  -115.8869 -70.2509 -70.2509 -70.2291 -65.4113 -32.3878 -32.3878 -32.3851
   -10.1967  -9.9054   1.4095   1.7879   1.7879   2.6839   2.6839   2.9490
     5.3726   5.8037   5.8037   6.8221   6.8221

     occupation numbers 
     1.0000   1.0000   1.0000   1.0000   1.0000   1.0000   1.0000   1.0000
     1.0000   1.0000   1.0000   1.0000   1.0000   1.0000   1.0000   1.0000
     1.0000   1.0000   1.0000   1.0000   1.0000

          k =-0.0000 0.1443-0.0000 (  3891 PWs)   bands (ev):

  -115.8869 -70.2513 -70.2510 -70.2291 -65.4109 -32.3932 -32.3890 -32.3841
   -10.3313  -9.6131   1.7250   1.8416   1.8940   2.2288   2.6918   2.7052
     5.3021   5.6515   6.0991   6.4839   6.7621

     occupation numbers 
     1.0000   1.0000   1.0000   1.0000   1.0000   1.0000   1.0000   1.0000
     1.0000   1.0000   1.0000   1.0000   1.0000   1.0000   1.0000   1.0000
     1.0000   1.0000   1.0000   1.0000   1.0000

          k = 0.0000 0.1443 0.0747 (  3887 PWs)   bands (ev):

  -115.8869 -70.2513 -70.2510 -70.2291 -65.4109 -32.3932 -32.3890 -32.3841
   -10.3098  -9.6375   1.7148   1.7842   1.8417   2.3572   2.6901   2.7351
     5.3232   5.6559   6.0044   6.4541   6.7608

     occupation numbers 
     1.0000   1.0000   1.0000   1.0000   1.0000   1.0000   1.0000   1.0000
     1.0000   1.0000   1.0000   1.0000   1.0000   1.0000   1.0000   1.0000
     1.0000   1.0000   1.0000   1.0000   1.0000

          k = 0.0000 0.1443 0.1493 (  3888 PWs)   bands (ev):

  -115.8869 -70.2513 -70.2510 -70.2291 -65.4109 -32.3932 -32.3890 -32.3841
   -10.2502  -9.7042   1.5985   1.7348   1.8408   2.4947   2.6865   2.8702
     5.3283   5.6809   5.7932   6.4202   6.7414

     occupation numbers 
     1.0000   1.0000   1.0000   1.0000   1.0000   1.0000   1.0000   1.0000
     1.0000   1.0000   1.0000   1.0000   1.0000   1.0000   1.0000   1.0000
     1.0000   1.0000   1.0000   1.0000   1.0000

          k = 0.0000 0.1443 0.2240 (  3881 PWs)   bands (ev):

  -115.8869 -70.2513 -70.2510 -70.2291 -65.4109 -32.3932 -32.3890 -32.3841
   -10.1708  -9.7906   1.4932   1.7306   1.8393   2.5341   2.6831   3.0677
     5.2344   5.6913   5.7131   6.3778   6.7138

     occupation numbers 
     1.0000   1.0000   1.0000   1.0000   1.0000   1.0000   1.0000   1.0000
     1.0000   1.0000   1.0000   1.0000   1.0000   1.0000   1.0000   1.0000
     1.0000   1.0000   1.0000   1.0000   1.0000

          k =-0.0000 0.1443-0.2987 (  3880 PWs)   bands (ev):

  -115.8869 -70.2513 -70.2510 -70.2291 -65.4109 -32.3932 -32.3890 -32.3842
   -10.1245  -9.8397   1.4547   1.7312   1.8382   2.5402   2.6819   3.1643
     5.1405   5.6908   5.7334   6.3677   6.6945

     occupation numbers 
     1.0000   1.0000   1.0000   1.0000   1.0000   1.0000   1.0000   1.0000
     1.0000   1.0000   1.0000   1.0000   1.0000   1.0000   1.0000   1.0000
     1.0000   1.0000   1.0000   1.0000   1.0000

          k =-0.0000 0.1443-0.2240 (  3881 PWs)   bands (ev):

  -115.8869 -70.2513 -70.2510 -70.2291 -65.4109 -32.3932 -32.3890 -32.3841
   -10.1709  -9.7905   1.4866   1.7357   1.8380   2.5341   2.6836   3.0797
     5.1813   5.7046   5.7286   6.4120   6.6962

     occupation numbers 
     1.0000   1.0000   1.0000   1.0000   1.0000   1.0000   1.0000   1.0000
     1.0000   1.0000   1.0000   1.0000   1.0000   1.0000   1.0000   1.0000
     1.0000   1.0000   1.0000   1.0000   1.0000

          k =-0.0000 0.1443-0.1493 (  3888 PWs)   bands (ev):

  -115.8869 -70.2513 -70.2510 -70.2291 -65.4109 -32.3932 -32.3890 -32.3841
   -10.2502  -9.7041   1.5850   1.7446   1.8390   2.4979   2.6872   2.8824
     5.2679   5.7017   5.7932   6.4761   6.7176

     occupation numbers 
     1.0000   1.0000   1.0000   1.0000   1.0000   1.0000   1.0000   1.0000
     1.0000   1.0000   1.0000   1.0000   1.0000   1.0000   1.0000   1.0000
     1.0000   1.0000   1.0000   1.0000   1.0000

          k =-0.0000 0.1443-0.0747 (  3887 PWs)   bands (ev):

  -115.8869 -70.2513 -70.2510 -70.2291 -65.4109 -32.3932 -32.3890 -32.3841
   -10.3099  -9.6375   1.7025   1.7904   1.8405   2.3665   2.6906   2.7387
     5.2943   5.6699   5.9783   6.5076   6.7447

     occupation numbers 
     1.0000   1.0000   1.0000   1.0000   1.0000   1.0000   1.0000   1.0000
     1.0000   1.0000   1.0000   1.0000   1.0000   1.0000   1.0000   1.0000
     1.0000   1.0000   1.0000   1.0000   1.0000

          k =-0.0000 0.2887-0.0000 (  3883 PWs)   bands (ev):

  -115.8868 -70.2522 -70.2513 -70.2290 -65.4101 -32.4055 -32.3917 -32.3824
   -10.1025  -9.5120   1.6113   1.9591   2.1152   2.3269   2.7108   2.8716
     4.3938   5.1483   5.4140   6.2269   6.5287

     occupation numbers 
     1.0000   1.0000   1.0000   1.0000   1.0000   1.0000   1.0000   1.0000
     1.0000   1.0000   1.0000   1.0000   1.0000   1.0000   1.0000   1.0000
     1.0000   1.0000   1.0000   1.0000   1.0000

          k = 0.0000 0.2887 0.0747 (  3881 PWs)   bands (ev):

  -115.8868 -70.2522 -70.2512 -70.2290 -65.4101 -32.4055 -32.3917 -32.3824
   -10.0852  -9.5303   1.5968   1.9590   2.0249   2.3531   2.7091   2.9271
     4.5025   5.1209   5.4222   6.1659   6.5225

     occupation numbers 
     1.0000   1.0000   1.0000   1.0000   1.0000   1.0000   1.0000   1.0000
     1.0000   1.0000   1.0000   1.0000   1.0000   1.0000   1.0000   1.0000
     1.0000   1.0000   1.0000   1.0000   1.0000

          k = 0.0000 0.2887 0.1493 (  3884 PWs)   bands (ev):

  -115.8868 -70.2522 -70.2512 -70.2290 -65.4101 -32.4055 -32.3917 -32.3824
   -10.0383  -9.5799   1.5560   1.8616   1.9566   2.3786   2.7060   3.1074
     4.6197   5.1112   5.4625   6.0638   6.4841

     occupation numbers 
     1.0000   1.0000   1.0000   1.0000   1.0000   1.0000   1.0000   1.0000
     1.0000   1.0000   1.0000   1.0000   1.0000   1.0000   1.0000   1.0000
     1.0000   1.0000   1.0000   1.0000   1.0000

          k = 0.0000 0.2887 0.2240 (  3873 PWs)   bands (ev):

  -115.8868 -70.2522 -70.2512 -70.2290 -65.4101 -32.4055 -32.3917 -32.3824
    -9.9780  -9.6427   1.4968   1.7710   1.9533   2.3772   2.7036   3.2924
     4.5636   5.3149   5.5153   5.8930   6.4319

     occupation numbers 
     1.0000   1.0000   1.0000   1.0000   1.0000   1.0000   1.0000   1.0000
     1.0000   1.0000   1.0000   1.0000   1.0000   1.0000   1.0000   1.0000
     1.0000   1.0000   1.0000   1.0000   1.0000

          k =-0.0000 0.2887-0.2987 (  3870 PWs)   bands (ev):

  -115.8868 -70.2522 -70.2512 -70.2290 -65.4101 -32.4055 -32.3917 -32.3824
    -9.9452  -9.6765   1.4611   1.7507   1.9509   2.3724   2.7031   3.4129
     4.4280   5.5427   5.5493   5.7517   6.3971

     occupation numbers 
     1.0000   1.0000   1.0000   1.0000   1.0000   1.0000   1.0000   1.0000
     1.0000   1.0000   1.0000   1.0000   1.0000   1.0000   1.0000   1.0000
     1.0000   1.0000   1.0000   1.0000   1.0000

          k =-0.0000 0.2887-0.2240 (  3873 PWs)   bands (ev):

  -115.8868 -70.2522 -70.2512 -70.2290 -65.4101 -32.4055 -32.3917 -32.3824
    -9.9783  -9.6422   1.4813   1.7754   1.9509   2.3746   2.7049   3.4044
     4.3491   5.3529   5.5392   5.9887   6.4053

     occupation numbers 
     1.0000   1.0000   1.0000   1.0000   1.0000   1.0000   1.0000   1.0000
     1.0000   1.0000   1.0000   1.0000   1.0000   1.0000   1.0000   1.0000
     1.0000   1.0000   1.0000   1.0000   1.0000

          k =-0.0000 0.2887-0.1493 (  3884 PWs)   bands (ev):

  -115.8868 -70.2522 -70.2512 -70.2290 -65.4101 -32.4055 -32.3917 -32.3824
   -10.0386  -9.5794   1.5432   1.8465   1.9533   2.3819   2.7078   3.2450
     4.3446   5.1825   5.4927   6.1797   6.4499

     occupation numbers 
     1.0000   1.0000   1.0000   1.0000   1.0000   1.0000   1.0000   1.0000
     1.0000   1.0000   1.0000   1.0000   1.0000   1.0000   1.0000   1.0000
     1.0000   1.0000   1.0000   1.0000   1.0000

          k =-0.0000 0.2887-0.0747 (  3881 PWs)   bands (ev):

  -115.8868 -70.2522 -70.2512 -70.2290 -65.4101 -32.4055 -32.3917 -32.3824
   -10.0854  -9.5301   1.5956   1.9567   1.9813   2.3744   2.7103   3.0168
     4.3553   5.1369   5.4418   6.2481   6.5001

     occupation numbers 
     1.0000   1.0000   1.0000   1.0000   1.0000   1.0000   1.0000   1.0000
     1.0000   1.0000   1.0000   1.0000   1.0000   1.0000   1.0000   1.0000
     1.0000   1.0000   1.0000   1.0000   1.0000

          k =-0.0000 0.4330-0.0000 (  3875 PWs)   bands (ev):

  -115.8868 -70.2531 -70.2515 -70.2289 -65.4093 -32.4176 -32.3945 -32.3807
    -9.8448  -9.4251   1.5614   2.0536   2.2533   2.3111   2.7879   3.0846
     3.8703   4.5238   5.1398   5.7688   6.3134

     occupation numbers 
     1.0000   1.0000   1.0000   1.0000   1.0000   1.0000   1.0000   1.0000
     1.0000   1.0000   1.0000   1.0000   1.0000   1.0000   1.0000   1.0000
     1.0000   1.0000   1.0000   1.0000   1.0000

          k =-0.0000 0.4330 0.0747 (  3880 PWs)   bands (ev):

  -115.8868 -70.2531 -70.2515 -70.2289 -65.4093 -32.4176 -32.3945 -32.3807
    -9.8341  -9.4349   1.5315   2.0523   2.2290   2.3239   2.7868   2.9610
     4.1003   4.5084   5.1567   5.7518   6.2967

     occupation numbers 
     1.0000   1.0000   1.0000   1.0000   1.0000   1.0000   1.0000   1.0000
     1.0000   1.0000   1.0000   1.0000   1.0000   1.0000   1.0000   1.0000
     1.0000   1.0000   1.0000   1.0000   1.0000

          k = 0.0000 0.4330 0.1493 (  3872 PWs)   bands (ev):

  -115.8868 -70.2531 -70.2515 -70.2289 -65.4093 -32.4176 -32.3945 -32.3807
    -9.8063  -9.4607   1.4815   2.0470   2.0657   2.3376   2.7854   2.9867
     4.2190   4.6368   5.2136   5.7762   6.2383

     occupation numbers 
     1.0000   1.0000   1.0000   1.0000   1.0000   1.0000   1.0000   1.0000
     1.0000   1.0000   1.0000   1.0000   1.0000   1.0000   1.0000   1.0000
     1.0000   1.0000   1.0000   1.0000   1.0000

          k = 0.0000 0.4330 0.2240 (  3864 PWs)   bands (ev):

  -115.8868 -70.2531 -70.2515 -70.2289 -65.4093 -32.4176 -32.3945 -32.3808
    -9.7736  -9.4914   1.4338   1.9294   2.0410   2.3287   2.7845   3.0823
     4.1000   4.9665   5.2845   5.7659   6.1653

     occupation numbers 
     1.0000   1.0000   1.0000   1.0000   1.0000   1.0000   1.0000   1.0000
     1.0000   1.0000   1.0000   1.0000   1.0000   1.0000   1.0000   1.0000
     1.0000   1.0000   1.0000   1.0000   1.0000

          k =-0.0000 0.4330-0.2987 (  3870 PWs)   bands (ev):

  -115.8868 -70.2531 -70.2515 -70.2289 -65.4093 -32.4176 -32.3945 -32.3808
    -9.7580  -9.5062   1.4147   1.8743   2.0377   2.3133   2.7846   3.1952
     3.9621   5.1241   5.3251   5.7749   6.1231

     occupation numbers 
     1.0000   1.0000   1.0000   1.0000   1.0000   1.0000   1.0000   1.0000
     1.0000   1.0000   1.0000   1.0000   1.0000   1.0000   1.0000   1.0000
     1.0000   1.0000   1.0000   1.0000   1.0000

          k =-0.0000 0.4330-0.2240 (  3864 PWs)   bands (ev):

  -115.8868 -70.2531 -70.2515 -70.2289 -65.4093 -32.4176 -32.3945 -32.3808
    -9.7742  -9.4908   1.4418   1.8986   2.0390   2.3014   2.7856   3.2920
     3.8644   4.9546   5.3019   5.8788   6.1462

     occupation numbers 
     1.0000   1.0000   1.0000   1.0000   1.0000   1.0000   1.0000   1.0000
     1.0000   1.0000   1.0000   1.0000   1.0000   1.0000   1.0000   1.0000
     1.0000   1.0000   1.0000   1.0000   1.0000

          k =-0.0000 0.4330-0.1493 (  3872 PWs)   bands (ev):

  -115.8868 -70.2531 -70.2515 -70.2289 -65.4093 -32.4176 -32.3945 -32.3807
    -9.8069  -9.4600   1.5020   1.9878   2.0442   2.3005   2.7870   3.3305
     3.8153   4.6843   5.2347   5.9162   6.2148

     occupation numbers 
     1.0000   1.0000   1.0000   1.0000   1.0000   1.0000   1.0000   1.0000
     1.0000   1.0000   1.0000   1.0000   1.0000   1.0000   1.0000   1.0000
     1.0000   1.0000   1.0000   1.0000   1.0000

          k =-0.0000 0.4330-0.0747 (  3880 PWs)   bands (ev):

  -115.8868 -70.2531 -70.2515 -70.2289 -65.4093 -32.4176 -32.3945 -32.3807
    -9.8345  -9.4345   1.5524   2.0503   2.1229   2.3112   2.7880   3.2653
     3.7873   4.5373   5.1699   5.8515   6.2817

     occupation numbers 
     1.0000   1.0000   1.0000   1.0000   1.0000   1.0000   1.0000   1.0000
     1.0000   1.0000   1.0000   1.0000   1.0000   1.0000   1.0000   1.0000
     1.0000   1.0000   1.0000   1.0000   1.0000

          k = 0.0000-0.5774 0.0000 (  3890 PWs)   bands (ev):

  -115.8868 -70.2534 -70.2516 -70.2289 -65.4089 -32.4227 -32.3956 -32.3800
    -9.7218  -9.4006   1.5761   2.0819   2.2678   2.3613   2.7929   2.8463
     4.1996   4.2959   5.0097   5.3962   6.2296

     occupation numbers 
     1.0000   1.0000   1.0000   1.0000   1.0000   1.0000   1.0000   1.0000
     1.0000   1.0000   1.0000   1.0000   1.0000   1.0000   1.0000   1.0000
     1.0000   1.0000   1.0000   1.0000   1.0000

          k = 0.0000-0.5774 0.0747 (  3882 PWs)   bands (ev):

  -115.8868 -70.2534 -70.2516 -70.2289 -65.4089 -32.4227 -32.3956 -32.3801
    -9.7160  -9.4048   1.5502   2.0790   2.2398   2.3206   2.8124   2.8460
     4.1369   4.4064   5.0350   5.4801   6.2032

     occupation numbers 
     1.0000   1.0000   1.0000   1.0000   1.0000   1.0000   1.0000   1.0000
     1.0000   1.0000   1.0000   1.0000   1.0000   1.0000   1.0000   1.0000
     1.0000   1.0000   1.0000   1.0000   1.0000

          k = 0.0000-0.5774 0.1493 (  3862 PWs)   bands (ev):

  -115.8868 -70.2534 -70.2516 -70.2288 -65.4089 -32.4227 -32.3956 -32.3801
    -9.7012  -9.4156   1.4895   2.0720   2.0920   2.3481   2.8302   2.8454
     4.0094   4.6734   5.1010   5.6408   6.1345

     occupation numbers 
     1.0000   1.0000   1.0000   1.0000   1.0000   1.0000   1.0000   1.0000
     1.0000   1.0000   1.0000   1.0000   1.0000   1.0000   1.0000   1.0000
     1.0000   1.0000   1.0000   1.0000   1.0000

          k = 0.0000-0.5774 0.2240 (  3862 PWs)   bands (ev):

  -115.8868 -70.2534 -70.2516 -70.2289 -65.4089 -32.4227 -32.3956 -32.3801
    -9.6851  -9.4278   1.4301   1.9676   2.0650   2.3870   2.8303   2.8448
     3.9078   4.9469   5.1766   5.7495   6.0562

     occupation numbers 
     1.0000   1.0000   1.0000   1.0000   1.0000   1.0000   1.0000   1.0000
     1.0000   1.0000   1.0000   1.0000   1.0000   1.0000   1.0000   1.0000
     1.0000   1.0000   1.0000   1.0000   1.0000

          k =-0.0000-0.5774-0.2987 (  3852 PWs)   bands (ev):

  -115.8868 -70.2534 -70.2516 -70.2288 -65.4089 -32.4227 -32.3956 -32.3801
    -9.6780  -9.4333   1.4057   1.9225   2.0622   2.4034   2.8274   2.8446
     3.8709   5.0681   5.2120   5.7768   6.0196

     occupation numbers 
     1.0000   1.0000   1.0000   1.0000   1.0000   1.0000   1.0000   1.0000
     1.0000   1.0000   1.0000   1.0000   1.0000   1.0000   1.0000   1.0000
     1.0000   1.0000   1.0000   1.0000   1.0000

          k = 0.1250 0.0722-0.0000 (  3891 PWs)   bands (ev):

  -115.8869 -70.2513 -70.2510 -70.2291 -65.4109 -32.3932 -32.3890 -32.3841
   -10.3313  -9.6131   1.7250   1.8416   1.8940   2.2288   2.6918   2.7052
     5.3021   5.6515   6.0991   6.4839   6.7621

     occupation numbers 
     1.0000   1.0000   1.0000   1.0000   1.0000   1.0000   1.0000   1.0000
     1.0000   1.0000   1.0000   1.0000   1.0000   1.0000   1.0000   1.0000
     1.0000   1.0000   1.0000   1.0000   1.0000

          k = 0.1250 0.0722 0.0747 (  3887 PWs)   bands (ev):

  -115.8869 -70.2513 -70.2510 -70.2291 -65.4109 -32.3932 -32.3890 -32.3841
   -10.3099  -9.6375   1.7025   1.7904   1.8405   2.3665   2.6906   2.7387
     5.2943   5.6699   5.9783   6.5076   6.7447

     occupation numbers 
     1.0000   1.0000   1.0000   1.0000   1.0000   1.0000   1.0000   1.0000
     1.0000   1.0000   1.0000   1.0000   1.0000   1.0000   1.0000   1.0000
     1.0000   1.0000   1.0000   1.0000   1.0000

          k = 0.1250 0.0722 0.1493 (  3888 PWs)   bands (ev):

  -115.8869 -70.2513 -70.2510 -70.2291 -65.4109 -32.3932 -32.3890 -32.3841
   -10.2502  -9.7041   1.5850   1.7446   1.8390   2.4979   2.6872   2.8824
     5.2679   5.7017   5.7932   6.4761   6.7176

     occupation numbers 
     1.0000   1.0000   1.0000   1.0000   1.0000   1.0000   1.0000   1.0000
     1.0000   1.0000   1.0000   1.0000   1.0000   1.0000   1.0000   1.0000
     1.0000   1.0000   1.0000   1.0000   1.0000

          k = 0.1250 0.0722 0.2240 (  3881 PWs)   bands (ev):

  -115.8869 -70.2513 -70.2510 -70.2291 -65.4109 -32.3932 -32.3890 -32.3841
   -10.1709  -9.7905   1.4866   1.7357   1.8380   2.5341   2.6836   3.0797
     5.1813   5.7046   5.7286   6.4120   6.6962

     occupation numbers 
     1.0000   1.0000   1.0000   1.0000   1.0000   1.0000   1.0000   1.0000
     1.0000   1.0000   1.0000   1.0000   1.0000   1.0000   1.0000   1.0000
     1.0000   1.0000   1.0000   1.0000   1.0000

          k = 0.1250 0.0722-0.2987 (  3880 PWs)   bands (ev):

  -115.8869 -70.2513 -70.2510 -70.2291 -65.4109 -32.3932 -32.3890 -32.3842
   -10.1245  -9.8397   1.4547   1.7312   1.8382   2.5402   2.6819   3.1643
     5.1405   5.6908   5.7334   6.3677   6.6945

     occupation numbers 
     1.0000   1.0000   1.0000   1.0000   1.0000   1.0000   1.0000   1.0000
     1.0000   1.0000   1.0000   1.0000   1.0000   1.0000   1.0000   1.0000
     1.0000   1.0000   1.0000   1.0000   1.0000

          k = 0.1250 0.0722-0.2240 (  3881 PWs)   bands (ev):

  -115.8869 -70.2513 -70.2510 -70.2291 -65.4109 -32.3932 -32.3890 -32.3841
   -10.1708  -9.7906   1.4932   1.7306   1.8393   2.5341   2.6831   3.0677
     5.2344   5.6913   5.7131   6.3778   6.7138

     occupation numbers 
     1.0000   1.0000   1.0000   1.0000   1.0000   1.0000   1.0000   1.0000
     1.0000   1.0000   1.0000   1.0000   1.0000   1.0000   1.0000   1.0000
     1.0000   1.0000   1.0000   1.0000   1.0000

          k = 0.1250 0.0722-0.1493 (  3888 PWs)   bands (ev):

  -115.8869 -70.2513 -70.2510 -70.2291 -65.4109 -32.3932 -32.3890 -32.3841
   -10.2502  -9.7042   1.5985   1.7348   1.8408   2.4947   2.6865   2.8702
     5.3283   5.6809   5.7932   6.4202   6.7414

     occupation numbers 
     1.0000   1.0000   1.0000   1.0000   1.0000   1.0000   1.0000   1.0000
     1.0000   1.0000   1.0000   1.0000   1.0000   1.0000   1.0000   1.0000
     1.0000   1.0000   1.0000   1.0000   1.0000

          k = 0.1250 0.0722-0.0747 (  3887 PWs)   bands (ev):

  -115.8869 -70.2513 -70.2510 -70.2291 -65.4109 -32.3932 -32.3890 -32.3841
   -10.3098  -9.6375   1.7148   1.7842   1.8417   2.3572   2.6901   2.7351
     5.3232   5.6559   6.0044   6.4541   6.7608

     occupation numbers 
     1.0000   1.0000   1.0000   1.0000   1.0000   1.0000   1.0000   1.0000
     1.0000   1.0000   1.0000   1.0000   1.0000   1.0000   1.0000   1.0000
     1.0000   1.0000   1.0000   1.0000   1.0000

          k = 0.1250 0.2165-0.0000 (  3891 PWs)   bands (ev):

  -115.8869 -70.2519 -70.2512 -70.2290 -65.4103 -32.4014 -32.3915 -32.3828
   -10.1720  -9.5407   1.6861   1.8539   2.0842   2.3117   2.6765   2.8250
     4.7457   5.1585   5.6379   6.2996   6.5376

     occupation numbers 
     1.0000   1.0000   1.0000   1.0000   1.0000   1.0000   1.0000   1.0000
     1.0000   1.0000   1.0000   1.0000   1.0000   1.0000   1.0000   1.0000
     1.0000   1.0000   1.0000   1.0000   1.0000

          k = 0.1250 0.2165 0.0747 (  3884 PWs)   bands (ev):

  -115.8869 -70.2519 -70.2512 -70.2290 -65.4103 -32.4014 -32.3915 -32.3829
   -10.1534  -9.5609   1.6731   1.8268   1.9895   2.3788   2.6795   2.9098
     4.7547   5.1857   5.6091   6.2795   6.5198

     occupation numbers 
     1.0000   1.0000   1.0000   1.0000   1.0000   1.0000   1.0000   1.0000
     1.0000   1.0000   1.0000   1.0000   1.0000   1.0000   1.0000   1.0000
     1.0000   1.0000   1.0000   1.0000   1.0000

          k = 0.1250 0.2165 0.1493 (  3886 PWs)   bands (ev):

  -115.8869 -70.2519 -70.2512 -70.2290 -65.4103 -32.4014 -32.3915 -32.3829
   -10.1023  -9.6159   1.6139   1.7580   1.9258   2.4188   2.6800   3.1140
     4.7461   5.2860   5.5680   6.1989   6.4717

     occupation numbers 
     1.0000   1.0000   1.0000   1.0000   1.0000   1.0000   1.0000   1.0000
     1.0000   1.0000   1.0000   1.0000   1.0000   1.0000   1.0000   1.0000
     1.0000   1.0000   1.0000   1.0000   1.0000

          k = 0.1250 0.2165 0.2240 (  3892 PWs)   bands (ev):

  -115.8869 -70.2519 -70.2512 -70.2290 -65.4103 -32.4014 -32.3915 -32.3829
   -10.0358  -9.6863   1.5272   1.7270   1.9087   2.4237   2.6781   3.3068
     4.6932   5.4507   5.5840   6.0379   6.4178

     occupation numbers 
     1.0000   1.0000   1.0000   1.0000   1.0000   1.0000   1.0000   1.0000
     1.0000   1.0000   1.0000   1.0000   1.0000   1.0000   1.0000   1.0000
     1.0000   1.0000   1.0000   1.0000   1.0000

          k = 0.1250 0.2165-0.2987 (  3894 PWs)   bands (ev):

  -115.8869 -70.2519 -70.2512 -70.2290 -65.4103 -32.4014 -32.3915 -32.3829
    -9.9986  -9.7251   1.4911   1.7197   1.9044   2.4226   2.6771   3.3854
     4.6592   5.5095   5.7051   5.8757   6.3942

     occupation numbers 
     1.0000   1.0000   1.0000   1.0000   1.0000   1.0000   1.0000   1.0000
     1.0000   1.0000   1.0000   1.0000   1.0000   1.0000   1.0000   1.0000
     1.0000   1.0000   1.0000   1.0000   1.0000

          k = 0.1250 0.2165-0.2240 (  3892 PWs)   bands (ev):

  -115.8869 -70.2519 -70.2512 -70.2290 -65.4103 -32.4014 -32.3915 -32.3829
   -10.0358  -9.6863   1.5272   1.7270   1.9087   2.4237   2.6781   3.3068
     4.6932   5.4507   5.5840   6.0379   6.4178

     occupation numbers 
     1.0000   1.0000   1.0000   1.0000   1.0000   1.0000   1.0000   1.0000
     1.0000   1.0000   1.0000   1.0000   1.0000   1.0000   1.0000   1.0000
     1.0000   1.0000   1.0000   1.0000   1.0000

          k = 0.1250 0.2165-0.1493 (  3886 PWs)   bands (ev):

  -115.8869 -70.2519 -70.2512 -70.2290 -65.4103 -32.4014 -32.3915 -32.3829
   -10.1023  -9.6159   1.6139   1.7580   1.9258   2.4188   2.6800   3.1140
     4.7461   5.2860   5.5680   6.1989   6.4717

     occupation numbers 
     1.0000   1.0000   1.0000   1.0000   1.0000   1.0000   1.0000   1.0000
     1.0000   1.0000   1.0000   1.0000   1.0000   1.0000   1.0000   1.0000
     1.0000   1.0000   1.0000   1.0000   1.0000

          k = 0.1250 0.2165-0.0747 (  3884 PWs)   bands (ev):

  -115.8869 -70.2519 -70.2512 -70.2290 -65.4103 -32.4014 -32.3915 -32.3829
   -10.1534  -9.5609   1.6731   1.8268   1.9895   2.3788   2.6795   2.9098
     4.7547   5.1857   5.6091   6.2795   6.5198

     occupation numbers 
     1.0000   1.0000   1.0000   1.0000   1.0000   1.0000   1.0000   1.0000
     1.0000   1.0000   1.0000   1.0000   1.0000   1.0000   1.0000   1.0000
     1.0000   1.0000   1.0000   1.0000   1.0000

          k = 0.1250 0.3608-0.0000 (  3868 PWs)   bands (ev):

  -115.8868 -70.2527 -70.2515 -70.2289 -65.4095 -32.4124 -32.3954 -32.3812
    -9.9262  -9.4474   1.6479   1.9465   2.2123   2.3491   2.6941   3.2241
     4.0245   4.5404   5.2013   5.9335   6.2260

     occupation numbers 
     1.0000   1.0000   1.0000   1.0000   1.0000   1.0000   1.0000   1.0000
     1.0000   1.0000   1.0000   1.0000   1.0000   1.0000   1.0000   1.0000
     1.0000   1.0000   1.0000   1.0000   1.0000

          k = 0.1250 0.3608 0.0747 (  3870 PWs)   bands (ev):

  -115.8868 -70.2527 -70.2515 -70.2289 -65.4095 -32.4124 -32.3954 -32.3812
    -9.9132  -9.4602   1.6237   1.9448   2.1598   2.3467   2.6977   3.1964
     4.1933   4.5451   5.1916   5.9037   6.2189

     occupation numbers 
     1.0000   1.0000   1.0000   1.0000   1.0000   1.0000   1.0000   1.0000
     1.0000   1.0000   1.0000   1.0000   1.0000   1.0000   1.0000   1.0000
     1.0000   1.0000   1.0000   1.0000   1.0000

          k = 0.1250 0.3608 0.1493 (  3878 PWs)   bands (ev):

  -115.8868 -70.2527 -70.2515 -70.2289 -65.4095 -32.4124 -32.3954 -32.3812
    -9.8785  -9.4944   1.5754   1.9135   2.0365   2.3457   2.7094   3.2650
     4.2716   4.7308   5.1999   5.8629   6.1714

     occupation numbers 
     1.0000   1.0000   1.0000   1.0000   1.0000   1.0000   1.0000   1.0000
     1.0000   1.0000   1.0000   1.0000   1.0000   1.0000   1.0000   1.0000
     1.0000   1.0000   1.0000   1.0000   1.0000

          k = 0.1250 0.3608 0.2240 (  3876 PWs)   bands (ev):

  -115.8868 -70.2527 -70.2515 -70.2289 -65.4095 -32.4124 -32.3954 -32.3812
    -9.8360  -9.5363   1.5206   1.8522   1.9831   2.3349   2.7166   3.3712
     4.1859   5.0250   5.2921   5.7760   6.0865

     occupation numbers 
     1.0000   1.0000   1.0000   1.0000   1.0000   1.0000   1.0000   1.0000
     1.0000   1.0000   1.0000   1.0000   1.0000   1.0000   1.0000   1.0000
     1.0000   1.0000   1.0000   1.0000   1.0000

          k = 0.1250 0.3608-0.2987 (  3880 PWs)   bands (ev):

  -115.8868 -70.2527 -70.2515 -70.2289 -65.4095 -32.4124 -32.3954 -32.3812
    -9.8145  -9.5575   1.4944   1.8228   1.9720   2.3274   2.7194   3.4730
     4.0632   5.1568   5.3837   5.7553   6.0058

     occupation numbers 
     1.0000   1.0000   1.0000   1.0000   1.0000   1.0000   1.0000   1.0000
     1.0000   1.0000   1.0000   1.0000   1.0000   1.0000   1.0000   1.0000
     1.0000   1.0000   1.0000   1.0000   1.0000

          k = 0.1250 0.3608-0.2240 (  3876 PWs)   bands (ev):

  -115.8868 -70.2527 -70.2515 -70.2289 -65.4095 -32.4124 -32.3954 -32.3812
    -9.8363  -9.5359   1.5219   1.8375   1.9831   2.3302   2.7189   3.5227
     3.9746   5.0865   5.2517   5.9071   6.0214

     occupation numbers 
     1.0000   1.0000   1.0000   1.0000   1.0000   1.0000   1.0000   1.0000
     1.0000   1.0000   1.0000   1.0000   1.0000   1.0000   1.0000   1.0000
     1.0000   1.0000   1.0000   1.0000   1.0000

          k = 0.1250 0.3608-0.1493 (  3878 PWs)   bands (ev):

  -115.8868 -70.2527 -70.2515 -70.2289 -65.4095 -32.4124 -32.3954 -32.3812
    -9.8788  -9.4940   1.5864   1.8812   2.0256   2.3440   2.7148   3.4750
     3.9495   4.8250   5.1959   5.9877   6.1125

     occupation numbers 
     1.0000   1.0000   1.0000   1.0000   1.0000   1.0000   1.0000   1.0000
     1.0000   1.0000   1.0000   1.0000   1.0000   1.0000   1.0000   1.0000
     1.0000   1.0000   1.0000   1.0000   1.0000

          k = 0.1250 0.3608-0.0747 (  3870 PWs)   bands (ev):

  -115.8868 -70.2527 -70.2515 -70.2289 -65.4095 -32.4124 -32.3954 -32.3812
    -9.9134  -9.4600   1.6376   1.9253   2.1188   2.3581   2.7054   3.3507
     3.9546   4.6224   5.1905   5.9812   6.1873

     occupation numbers 
     1.0000   1.0000   1.0000   1.0000   1.0000   1.0000   1.0000   1.0000
     1.0000   1.0000   1.0000   1.0000   1.0000   1.0000   1.0000   1.0000
     1.0000   1.0000   1.0000   1.0000   1.0000

          k = 0.1250 0.5052-0.0000 (  3875 PWs)   bands (ev):

  -115.8868 -70.2532 -70.2518 -70.2289 -65.4089 -32.4201 -32.3983 -32.3800
    -9.7265  -9.3985   1.6574   2.0605   2.3084   2.3437   2.7174   3.0655
     4.0670   4.3503   4.8160   5.4767   6.0104

     occupation numbers 
     1.0000   1.0000   1.0000   1.0000   1.0000   1.0000   1.0000   1.0000
     1.0000   1.0000   1.0000   1.0000   1.0000   1.0000   1.0000   1.0000
     1.0000   1.0000   1.0000   1.0000   1.0000

          k = 0.1250 0.5052 0.0747 (  3868 PWs)   bands (ev):

  -115.8868 -70.2532 -70.2518 -70.2289 -65.4089 -32.4201 -32.3983 -32.3800
    -9.7202  -9.4032   1.6253   2.0554   2.2651   2.3826   2.6903   3.0134
     4.1052   4.4542   4.8280   5.5050   5.9905

     occupation numbers 
     1.0000   1.0000   1.0000   1.0000   1.0000   1.0000   1.0000   1.0000
[...]
    -9.7048  -9.4149   1.5910   2.0311   2.0818   2.3382   2.7719   3.1284
     3.8971   4.6508   4.9484   5.6994   5.8986

     occupation numbers 
     1.0000   1.0000   1.0000   1.0000   1.0000   1.0000   1.0000   1.0000
     1.0000   1.0000   1.0000   1.0000   1.0000   1.0000   1.0000   1.0000
     1.0000   1.0000   1.0000   1.0000   1.0000

          k =-0.5000-0.1443-0.0747 (  3868 PWs)   bands (ev):

  -115.8868 -70.2532 -70.2518 -70.2289 -65.4089 -32.4201 -32.3983 -32.3800
    -9.7204  -9.4030   1.6445   2.0575   2.2042   2.3325   2.7533   3.1170
     3.9802   4.4412   4.8487   5.5715   5.9725

     occupation numbers 
     1.0000   1.0000   1.0000   1.0000   1.0000   1.0000   1.0000   1.0000
     1.0000   1.0000   1.0000   1.0000   1.0000   1.0000   1.0000   1.0000
     1.0000   1.0000   1.0000   1.0000   1.0000

          k =-0.5000 0.0000-0.0000 (  3875 PWs)   bands (ev):

  -115.8868 -70.2530 -70.2520 -70.2289 -65.4089 -32.4166 -32.4018 -32.3800
    -9.7311  -9.3965   1.7613   2.0411   2.2632   2.3454   2.7322   3.4420
     3.7279   4.2992   4.7856   5.5119   5.7907

     occupation numbers 
     1.0000   1.0000   1.0000   1.0000   1.0000   1.0000   1.0000   1.0000
     1.0000   1.0000   1.0000   1.0000   1.0000   1.0000   1.0000   1.0000
     1.0000   1.0000   1.0000   1.0000   1.0000

          k =-0.5000-0.0000 0.0747 (  3877 PWs)   bands (ev):

  -115.8868 -70.2530 -70.2520 -70.2289 -65.4089 -32.4166 -32.4018 -32.3800
    -9.7247  -9.4015   1.7432   2.0281   2.2208   2.3288   2.7444   3.4029
     3.7347   4.4549   4.7645   5.5341   5.7833

     occupation numbers 
     1.0000   1.0000   1.0000   1.0000   1.0000   1.0000   1.0000   1.0000
     1.0000   1.0000   1.0000   1.0000   1.0000   1.0000   1.0000   1.0000
     1.0000   1.0000   1.0000   1.0000   1.0000

          k =-0.5000-0.0000 0.1493 (  3866 PWs)   bands (ev):

  -115.8868 -70.2530 -70.2520 -70.2289 -65.4089 -32.4166 -32.4018 -32.3800
    -9.7080  -9.4145   1.6973   1.9901   2.1214   2.3081   2.7702   3.3624
     3.7572   4.6148   4.9038   5.4972   5.8148

     occupation numbers 
     1.0000   1.0000   1.0000   1.0000   1.0000   1.0000   1.0000   1.0000
     1.0000   1.0000   1.0000   1.0000   1.0000   1.0000   1.0000   1.0000
     1.0000   1.0000   1.0000   1.0000   1.0000

          k =-0.5000-0.0000 0.2240 (  3876 PWs)   bands (ev):

  -115.8868 -70.2530 -70.2520 -70.2289 -65.4089 -32.4166 -32.4018 -32.3801
    -9.6897  -9.4292   1.6469   1.9368   2.0493   2.2969   2.7912   3.3594
     3.7700   4.6415   5.1554   5.4512   5.8395

     occupation numbers 
     1.0000   1.0000   1.0000   1.0000   1.0000   1.0000   1.0000   1.0000
     1.0000   1.0000   1.0000   1.0000   1.0000   1.0000   1.0000   1.0000
     1.0000   1.0000   1.0000   1.0000   1.0000

          k =-0.5000 0.0000-0.2987 (  3864 PWs)   bands (ev):

  -115.8868 -70.2530 -70.2520 -70.2289 -65.4089 -32.4166 -32.4018 -32.3801
    -9.6814  -9.4360   1.6244   1.9106   2.0282   2.2937   2.7987   3.3647
     3.7704   4.6659   5.1799   5.5277   5.8170

     occupation numbers 
     1.0000   1.0000   1.0000   1.0000   1.0000   1.0000   1.0000   1.0000
     1.0000   1.0000   1.0000   1.0000   1.0000   1.0000   1.0000   1.0000
     1.0000   1.0000   1.0000   1.0000   1.0000

          k =-0.5000 0.0000-0.2240 (  3876 PWs)   bands (ev):

  -115.8868 -70.2530 -70.2520 -70.2289 -65.4089 -32.4166 -32.4018 -32.3801
    -9.6897  -9.4292   1.6469   1.9368   2.0493   2.2969   2.7912   3.3594
     3.7700   4.6415   5.1554   5.4512   5.8395

     occupation numbers 
     1.0000   1.0000   1.0000   1.0000   1.0000   1.0000   1.0000   1.0000
     1.0000   1.0000   1.0000   1.0000   1.0000   1.0000   1.0000   1.0000
     1.0000   1.0000   1.0000   1.0000   1.0000

          k =-0.5000 0.0000-0.1493 (  3866 PWs)   bands (ev):

  -115.8868 -70.2530 -70.2520 -70.2289 -65.4089 -32.4166 -32.4018 -32.3800
    -9.7080  -9.4145   1.6973   1.9901   2.1214   2.3081   2.7702   3.3624
     3.7572   4.6148   4.9038   5.4972   5.8148

     occupation numbers 
     1.0000   1.0000   1.0000   1.0000   1.0000   1.0000   1.0000   1.0000
     1.0000   1.0000   1.0000   1.0000   1.0000   1.0000   1.0000   1.0000
     1.0000   1.0000   1.0000   1.0000   1.0000

          k =-0.5000 0.0000-0.0747 (  3877 PWs)   bands (ev):

  -115.8868 -70.2530 -70.2520 -70.2289 -65.4089 -32.4166 -32.4018 -32.3800
    -9.7247  -9.4015   1.7432   2.0281   2.2208   2.3288   2.7444   3.4029
     3.7347   4.4549   4.7645   5.5341   5.7833

     occupation numbers 
     1.0000   1.0000   1.0000   1.0000   1.0000   1.0000   1.0000   1.0000
     1.0000   1.0000   1.0000   1.0000   1.0000   1.0000   1.0000   1.0000
     1.0000   1.0000   1.0000   1.0000   1.0000

          k =-0.5000 0.1443-0.0000 (  3875 PWs)   bands (ev):

  -115.8868 -70.2532 -70.2518 -70.2289 -65.4089 -32.4201 -32.3983 -32.3800
    -9.7265  -9.3985   1.6574   2.0605   2.3084   2.3437   2.7174   3.0655
     4.0670   4.3503   4.8160   5.4767   6.0104

     occupation numbers 
     1.0000   1.0000   1.0000   1.0000   1.0000   1.0000   1.0000   1.0000
     1.0000   1.0000   1.0000   1.0000   1.0000   1.0000   1.0000   1.0000
     1.0000   1.0000   1.0000   1.0000   1.0000

          k =-0.5000 0.1443 0.0747 (  3868 PWs)   bands (ev):

  -115.8868 -70.2532 -70.2518 -70.2289 -65.4089 -32.4201 -32.3983 -32.3800
    -9.7204  -9.4030   1.6445   2.0575   2.2042   2.3325   2.7533   3.1170
     3.9802   4.4412   4.8487   5.5715   5.9725

     occupation numbers 
     1.0000   1.0000   1.0000   1.0000   1.0000   1.0000   1.0000   1.0000
     1.0000   1.0000   1.0000   1.0000   1.0000   1.0000   1.0000   1.0000
     1.0000   1.0000   1.0000   1.0000   1.0000

          k =-0.5000 0.1443 0.1493 (  3866 PWs)   bands (ev):

  -115.8868 -70.2532 -70.2518 -70.2289 -65.4089 -32.4201 -32.3983 -32.3801
    -9.7048  -9.4149   1.5910   2.0311   2.0818   2.3382   2.7719   3.1284
     3.8971   4.6508   4.9484   5.6994   5.8986

     occupation numbers 
     1.0000   1.0000   1.0000   1.0000   1.0000   1.0000   1.0000   1.0000
     1.0000   1.0000   1.0000   1.0000   1.0000   1.0000   1.0000   1.0000
     1.0000   1.0000   1.0000   1.0000   1.0000

          k =-0.5000 0.1443 0.2240 (  3870 PWs)   bands (ev):

  -115.8868 -70.2532 -70.2518 -70.2289 -65.4089 -32.4201 -32.3983 -32.3801
    -9.6875  -9.4283   1.5305   1.9500   2.0493   2.3555   2.7795   3.1086
     3.8497   4.8493   5.0703   5.7572   5.8483

     occupation numbers 
     1.0000   1.0000   1.0000   1.0000   1.0000   1.0000   1.0000   1.0000
     1.0000   1.0000   1.0000   1.0000   1.0000   1.0000   1.0000   1.0000
     1.0000   1.0000   1.0000   1.0000   1.0000

          k =-0.5000 0.1443-0.2987 (  3868 PWs)   bands (ev):

  -115.8868 -70.2532 -70.2518 -70.2289 -65.4089 -32.4201 -32.3983 -32.3801
    -9.6797  -9.4347   1.5016   1.9216   2.0421   2.3749   2.7752   3.0677
     3.8662   4.9447   5.1076   5.7508   5.8380

     occupation numbers 
     1.0000   1.0000   1.0000   1.0000   1.0000   1.0000   1.0000   1.0000
     1.0000   1.0000   1.0000   1.0000   1.0000   1.0000   1.0000   1.0000
     1.0000   1.0000   1.0000   1.0000   1.0000

          k =-0.5000 0.1443-0.2240 (  3870 PWs)   bands (ev):

  -115.8868 -70.2532 -70.2518 -70.2289 -65.4089 -32.4201 -32.3983 -32.3801
    -9.6873  -9.4286   1.5193   1.9747   2.0483   2.3895   2.7535   3.0245
     3.9411   4.8459   5.0922   5.6534   5.8961

     occupation numbers 
     1.0000   1.0000   1.0000   1.0000   1.0000   1.0000   1.0000   1.0000
     1.0000   1.0000   1.0000   1.0000   1.0000   1.0000   1.0000   1.0000
     1.0000   1.0000   1.0000   1.0000   1.0000

          k =-0.5000 0.1443-0.1493 (  3866 PWs)   bands (ev):

  -115.8868 -70.2532 -70.2518 -70.2289 -65.4089 -32.4201 -32.3983 -32.3801
    -9.7045  -9.4152   1.5696   2.0422   2.1231   2.3944   2.7156   3.0017
     4.0412   4.6675   4.9400   5.5894   5.9396

     occupation numbers 
     1.0000   1.0000   1.0000   1.0000   1.0000   1.0000   1.0000   1.0000
     1.0000   1.0000   1.0000   1.0000   1.0000   1.0000   1.0000   1.0000
     1.0000   1.0000   1.0000   1.0000   1.0000

          k =-0.5000 0.1443-0.0747 (  3868 PWs)   bands (ev):

  -115.8868 -70.2532 -70.2518 -70.2289 -65.4089 -32.4201 -32.3983 -32.3800
    -9.7202  -9.4032   1.6253   2.0554   2.2651   2.3826   2.6903   3.0134
     4.1052   4.4542   4.8280   5.5050   5.9905

     occupation numbers 
     1.0000   1.0000   1.0000   1.0000   1.0000   1.0000   1.0000   1.0000
     1.0000   1.0000   1.0000   1.0000   1.0000   1.0000   1.0000   1.0000
     1.0000   1.0000   1.0000   1.0000   1.0000

          k =-0.5000-0.8660 0.0000 (  3890 PWs)   bands (ev):

  -115.8868 -70.2534 -70.2516 -70.2289 -65.4089 -32.4227 -32.3956 -32.3800
    -9.7218  -9.4006   1.5761   2.0819   2.2678   2.3613   2.7929   2.8463
     4.1996   4.2959   5.0097   5.3962   6.2296

     occupation numbers 
     1.0000   1.0000   1.0000   1.0000   1.0000   1.0000   1.0000   1.0000
     1.0000   1.0000   1.0000   1.0000   1.0000   1.0000   1.0000   1.0000
     1.0000   1.0000   1.0000   1.0000   1.0000

          k =-0.5000-0.8660 0.0747 (  3882 PWs)   bands (ev):

  -115.8868 -70.2534 -70.2516 -70.2289 -65.4089 -32.4227 -32.3956 -32.3801
    -9.7160  -9.4048   1.5502   2.0790   2.2398   2.3206   2.8124   2.8460
     4.1369   4.4064   5.0350   5.4801   6.2032

     occupation numbers 
     1.0000   1.0000   1.0000   1.0000   1.0000   1.0000   1.0000   1.0000
     1.0000   1.0000   1.0000   1.0000   1.0000   1.0000   1.0000   1.0000
     1.0000   1.0000   1.0000   1.0000   1.0000

          k =-0.5000-0.8660 0.1493 (  3862 PWs)   bands (ev):

  -115.8868 -70.2534 -70.2516 -70.2288 -65.4089 -32.4227 -32.3956 -32.3801
    -9.7012  -9.4156   1.4895   2.0720   2.0920   2.3481   2.8302   2.8454
     4.0094   4.6734   5.1010   5.6407   6.1345

     occupation numbers 
     1.0000   1.0000   1.0000   1.0000   1.0000   1.0000   1.0000   1.0000
     1.0000   1.0000   1.0000   1.0000   1.0000   1.0000   1.0000   1.0000
     1.0000   1.0000   1.0000   1.0000   1.0000

          k =-0.5000-0.8660 0.2240 (  3862 PWs)   bands (ev):

  -115.8868 -70.2534 -70.2516 -70.2289 -65.4089 -32.4227 -32.3956 -32.3801
    -9.6851  -9.4278   1.4301   1.9676   2.0650   2.3870   2.8303   2.8448
     3.9078   4.9469   5.1766   5.7495   6.0562

     occupation numbers 
     1.0000   1.0000   1.0000   1.0000   1.0000   1.0000   1.0000   1.0000
     1.0000   1.0000   1.0000   1.0000   1.0000   1.0000   1.0000   1.0000
     1.0000   1.0000   1.0000   1.0000   1.0000

          k =-0.5000-0.8660-0.2987 (  3852 PWs)   bands (ev):

  -115.8868 -70.2534 -70.2516 -70.2288 -65.4089 -32.4227 -32.3956 -32.3801
    -9.6780  -9.4333   1.4057   1.9225   2.0622   2.4034   2.8274   2.8446
     3.8709   5.0681   5.2120   5.7768   6.0196

     occupation numbers 
     1.0000   1.0000   1.0000   1.0000   1.0000   1.0000   1.0000   1.0000
     1.0000   1.0000   1.0000   1.0000   1.0000   1.0000   1.0000   1.0000
     1.0000   1.0000   1.0000   1.0000   1.0000

     highest occupied level (ev):     6.8640

!    total energy              =    -651.12454844 Ry
     Harris-Foulkes estimate   =    -651.12454847 Ry
     estimated scf accuracy    <       0.00000016 Ry

     The total energy is the sum of the following terms:

     one-electron contribution =    -541.60646910 Ry
     hartree contribution      =     283.98764302 Ry
     xc contribution           =     -73.06031422 Ry
     ewald contribution        =    -320.44540815 Ry

     convergence has been achieved in   8 iterations

     Forces acting on atoms (cartesian axes, Ry/au):

     atom    1 type  3   force =     0.00000052   -0.00000246   -0.03525231
     atom    2 type  3   force =     0.00000010   -0.00000106   -0.01620742
     atom    3 type  2   force =    -0.00000070    0.00000261    0.01808033
     atom    4 type  1   force =     0.00000008    0.00000090    0.03337939
     The non-local contrib.  to forces
     atom    1 type  3   force =    -0.00000028   -0.00000084    0.12486933
     atom    2 type  3   force =    -0.00000012    0.00000126   -0.17298045
     atom    3 type  2   force =    -0.00000056    0.00000041    0.09728798
     atom    4 type  1   force =     0.00000035    0.00000140   -0.00813764
     The ionic contribution  to forces
     atom    1 type  3   force =    -0.00000261    0.00001722   -8.97076891
     atom    2 type  3   force =     0.00000166   -0.00000938    8.74540304
     atom    3 type  2   force =    -0.00000252   -0.00000833    0.72557674
     atom    4 type  1   force =     0.00000348    0.00000050   -0.50021087
     The local contribution  to forces
     atom    1 type  3   force =     0.00000335   -0.00001847    8.81222671
     atom    2 type  3   force =    -0.00000185    0.00000706   -8.59062932
     atom    3 type  2   force =     0.00000301    0.00001001   -0.80586184
     atom    4 type  1   force =    -0.00000383   -0.00000110    0.54213669
     The core correction contribution to forces
     atom    1 type  3   force =     0.00000001   -0.00000002   -0.00133810
     atom    2 type  3   force =    -0.00000000   -0.00000002    0.00196574
     atom    3 type  2   force =     0.00000000    0.00000000    0.00000000
     atom    4 type  1   force =     0.00000000    0.00000000    0.00000000
     The Hubbard contrib.    to forces
     atom    1 type  3   force =     0.00000000    0.00000000    0.00000000
     atom    2 type  3   force =     0.00000000    0.00000000    0.00000000
     atom    3 type  2   force =     0.00000000    0.00000000    0.00000000
     atom    4 type  1   force =     0.00000000    0.00000000    0.00000000
     The SCF correction term to forces
     atom    1 type  3   force =     0.00000000    0.00000000    0.00000000
     atom    2 type  3   force =     0.00000000    0.00000000    0.00000000
     atom    3 type  2   force =     0.00000000    0.00000000    0.00000000
     atom    4 type  1   force =     0.00000000    0.00000000    0.00000000

     Total force =     0.000000     Total SCF correction =     0.000000


     Computing stress (Cartesian axis) and pressure

          total   stress  (Ry/bohr**3)                   (kbar)     P=   -4.42
  -0.00003070   0.00000000  -0.00000000         -4.52      0.00     -0.00
   0.00000000  -0.00003070  -0.00000000          0.00     -4.52     -0.00
  -0.00000000  -0.00000000  -0.00002883         -0.00     -0.00     -4.24

     kinetic stress (kbar)  26372.83      0.00      0.00
                                0.00  26372.83     -0.00
                                0.00     -0.00  26239.42

     local   stress (kbar) -18140.48     -0.01      0.03
                               -0.01 -18140.50     -0.06
                                0.03     -0.06    685.66

     nonloc. stress (kbar)   1740.41      0.00     -0.00
                                0.00   1740.41      0.00
                               -0.00      0.00   1798.70

     hartree stress (kbar)  46755.66      0.01     -0.01
                                0.01  46755.67      0.02
                               -0.01      0.02  36784.62

     exc-cor stress (kbar) -10405.26      0.00     -0.00
                                0.00 -10405.26      0.00
                               -0.00      0.00 -10400.93

     corecor stress (kbar)   -248.07     -0.00     -0.00
                               -0.00   -248.07     -0.00
                               -0.00     -0.00   -247.84

     ewald   stress (kbar) -46079.62      0.01     -0.02
                                0.01 -46079.60      0.03
                               -0.02      0.03 -54863.87

     hubbard stress (kbar)      0.00      0.00      0.00
                                0.00      0.00      0.00
                                0.00      0.00      0.00

     london  stress (kbar)      0.00      0.00      0.00
                                0.00      0.00      0.00
                                0.00      0.00      0.00

     DFT-D3  stress (kbar)      0.00      0.00      0.00
                                0.00      0.00      0.00
                                0.00      0.00      0.00

     XDM     stress (kbar)      0.00      0.00      0.00
                                0.00      0.00      0.00
                                0.00      0.00      0.00

     dft-nl  stress (kbar)      0.00      0.00      0.00
                                0.00      0.00      0.00
                                0.00      0.00      0.00

     TS-vdW  stress (kbar)      0.00      0.00      0.00
                                0.00      0.00      0.00
                                0.00      0.00      0.00



     Writing output data file ZnO.save/
 
     init_run     :      0.69s CPU      2.91s WALL (       1 calls)
     electrons    :      6.90s CPU      7.75s WALL (       1 calls)
     forces       :      0.16s CPU      0.24s WALL (       1 calls)
     stress       :      0.29s CPU      0.41s WALL (       1 calls)

     Called by init_run:
     wfcinit      :      0.49s CPU      1.55s WALL (       1 calls)
     wfcinit:atom :      0.00s CPU      0.03s WALL (      65 calls)
     wfcinit:wfcr :      0.47s CPU      1.49s WALL (      65 calls)
     potinit      :      0.07s CPU      0.30s WALL (       1 calls)
     hinit0       :      0.10s CPU      0.77s WALL (       1 calls)

     Called by electrons:
     c_bands      :      5.80s CPU      6.24s WALL (       8 calls)
     sum_band     :      0.81s CPU      1.03s WALL (       8 calls)
     v_of_rho     :      0.23s CPU      0.39s WALL (       9 calls)
     v_h          :      0.00s CPU      0.01s WALL (       9 calls)
     v_xc         :      0.27s CPU      0.43s WALL (      11 calls)
     newd         :      0.06s CPU      0.15s WALL (       9 calls)
     mix_rho      :      0.01s CPU      0.07s WALL (       8 calls)

     Called by c_bands:
     init_us_2    :      0.10s CPU      0.12s WALL (    1235 calls)
     cegterg      :      5.41s CPU      5.70s WALL (     520 calls)

     Called by sum_band:
     sum_band:bec :      0.01s CPU      0.01s WALL (     520 calls)
     addusdens    :      0.06s CPU      0.07s WALL (       8 calls)

     Called by *egterg:
     h_psi        :      3.23s CPU      3.40s WALL (    1861 calls)
     s_psi        :      0.12s CPU      0.12s WALL (    1861 calls)
     g_psi        :      0.01s CPU      0.01s WALL (    1276 calls)
     cdiaghg      :      1.65s CPU      2.63s WALL (    1796 calls)
     cegterg:over :      0.40s CPU      0.46s WALL (    1276 calls)
     cegterg:upda :      0.20s CPU      0.21s WALL (    1276 calls)
     cegterg:last :      0.11s CPU      0.11s WALL (     520 calls)
     cdiaghg:chol :      0.18s CPU      0.54s WALL (    1796 calls)
     cdiaghg:inve :      0.03s CPU      0.10s WALL (    1796 calls)
     cdiaghg:para :      0.15s CPU      0.17s WALL (    3592 calls)

     Called by h_psi:
     h_psi:pot    :      3.22s CPU      3.39s WALL (    1861 calls)
     h_psi:calbec :      0.20s CPU      0.26s WALL (    1861 calls)
     vloc_psi     :      2.89s CPU      2.99s WALL (    1861 calls)
     add_vuspsi   :      0.12s CPU      0.13s WALL (    1861 calls)

     General routines
     calbec       :      0.32s CPU      0.37s WALL (    2706 calls)
     fft          :      0.04s CPU      0.43s WALL (     140 calls)
     ffts         :      0.00s CPU      0.03s WALL (      17 calls)
     fftw         :      3.29s CPU      3.41s WALL (   69720 calls)
     interpolate  :      0.00s CPU      0.03s WALL (       9 calls)
 
     Parallel routines
     fft_scatt_xy :      0.46s CPU      0.48s WALL (   69877 calls)
     fft_scatt_yz :      1.72s CPU      1.80s WALL (   69877 calls)
 
     PWSCF        :      8.59s CPU     14.31s WALL

 
   This run was terminated on:  23:23:46  15Jun2022            

=------------------------------------------------------------------------------=
   JOB DONE.
=------------------------------------------------------------------------------=
