
     Program PWSCF v.6.4.1 starts on 15Jul2022 at  1:26:37 

     This program is part of the open-source Quantum ESPRESSO suite
     for quantum simulation of materials; please cite
         "P. Giannozzi et al., J. Phys.:Condens. Matter 21 395502 (2009);
         "P. Giannozzi et al., J. Phys.:Condens. Matter 29 465901 (2017);
          URL http://www.quantum-espresso.org", 
     in publications or presentations arising from this work. More details at
     http://www.quantum-espresso.org/quote

     Parallel version (MPI), running on   128 processors

     MPI processes distributed on     2 nodes
     K-points division:     npool     =       8
     R & G space division:  proc/nbgrp/npool/nimage =      16
     Waiting for input...
     Reading input from standard input
Warning: card &IONS ignored
Warning: card   UPSCALE           = 100.D0, ignored
Warning: card / ignored
Warning: card &CELL ignored
Warning: card   CELL_DYNAMICS     = 'BFGS' ignored
Warning: card   PRESS_CONV_THR    = 0.5D0 ignored
Warning: card   CELL_DOFREE = 'ALL' ignored
Warning: card / ignored

     Current dimensions of program PWSCF are:
     Max number of different atomic species (ntypx) = 10
     Max number of k-points (npk) =  40000
     Max angular momentum in pseudopotentials (lmaxx) =  3

     Subspace diagonalization in iterative solution of the eigenvalue problem:
     one sub-group per band group will be used
     scalapack distributed-memory algorithm (size of sub-group:  2*  2 procs)

 
     Parallelization info
     --------------------
     sticks:   dense  smooth     PW     G-vecs:    dense   smooth      PW
     Min         731     351     95                67280    22371    3224
     Max         732     353     96                67286    22373    3229
     Sum       11705    5623   1531              1076523   357953   51637
 


     bravais-lattice index     =            0
     lattice parameter (alat)  =      18.4233  a.u.
     unit-cell volume          =    5701.3510 (a.u.)^3
     number of atoms/cell      =           72
     number of atomic types    =            3
     number of electrons       =       796.00
     number of Kohn-Sham states=          478
     kinetic-energy cutoff     =      60.0000  Ry
     charge density cutoff     =     500.0000  Ry
     convergence threshold     =      1.0E-08
     mixing beta               =       0.5000
     number of iterations used =            8  plain     mixing
     Exchange-correlation      = SLA  PW   PSX  PSC ( 1  4 10  8 0 0)
     Using LIBXC version       =    4   3   4

     celldm(1)=  18.423338  celldm(2)=   0.000000  celldm(3)=   0.000000
     celldm(4)=   0.000000  celldm(5)=   0.000000  celldm(6)=   0.000000

     crystal axes: (cart. coord. in units of alat)
               a(1) = (   1.000000   0.000410  -0.000414 )  
               a(2) = (  -0.499644   0.866141   0.000428 )  
               a(3) = (  -0.000442   0.000273   1.052402 )  

     reciprocal axes: (cart. coord. in units 2 pi/alat)
               b(1) = (  0.999764  0.576725  0.000270 )  
               b(2) = ( -0.000473  1.154273 -0.000299 )  
               b(3) = (  0.000393 -0.000243  0.950208 )  


     PseudoPot. # 1 for Zn read from file:
     ./GBRV_PBEsol/zn_pbesol_v1.uspp.F.UPF
     MD5 check sum: 7d8615e52efe7c1e2b1899de8658bae2
     Pseudo is Ultrasoft, Zval = 20.0
     Generated by new atomic code, or converted to UPF format
     Using radial grid of  943 points,  6 beta functions with: 
                l(1) =   0
                l(2) =   0
                l(3) =   1
                l(4) =   1
                l(5) =   2
                l(6) =   2
     Q(r) pseudized with  8 coefficients,  rinner =    1.100   1.100   1.100
                                                       1.100   1.100

     PseudoPot. # 2 for O  read from file:
     ./GBRV_PBEsol/o_pbesol_v1.2.uspp.F.UPF
     MD5 check sum: 501638753501ef6325af9037351f7734
     Pseudo is Ultrasoft + core correction, Zval =  6.0
     Generated by new atomic code, or converted to UPF format
     Using radial grid of  737 points,  5 beta functions with: 
                l(1) =   0
                l(2) =   0
                l(3) =   1
                l(4) =   1
                l(5) =   2
     Q(r) pseudized with  8 coefficients,  rinner =    0.900   0.900   0.900
                                                       0.900   0.900

     PseudoPot. # 3 for Mg read from file:
     ./GBRV_PBEsol/mg_pbesol_v1.4.uspp.F.UPF
     MD5 check sum: 4059f37963cf5867752dbf5ab2400678
     Pseudo is Ultrasoft, Zval = 10.0
     Generated by new atomic code, or converted to UPF format
     Using radial grid of  821 points,  7 beta functions with: 
                l(1) =   0
                l(2) =   0
                l(3) =   0
                l(4) =   1
                l(5) =   1
                l(6) =   2
                l(7) =   2
     Q(r) pseudized with  8 coefficients,  rinner =    1.200   1.200   1.200
                                                       1.200   1.200

     atomic species   valence    mass     pseudopotential
        Zn            20.00    65.38000     Zn( 1.00)
        O              6.00    15.99900     O ( 1.00)
        Mg            10.00    24.30500     Mg( 1.00)

     No symmetry found


                                    s                        frac. trans.

      isym =  1     identity                                     

 cryst.   s( 1) = (     1          0          0      )
                  (     0          1          0      )
                  (     0          0          1      )

 cart.    s( 1) = (  1.0000000 -0.0000000  0.0000000 )
                  (  0.0000000  1.0000000  0.0000000 )
                  (  0.0000000  0.0000000  1.0000000 )


   Cartesian axes

     site n.     atom                  positions (alat units)
         1           Zn  tau(   1) = (   0.1662851   0.0972637   0.2054993  )
         2           Zn  tau(   2) = (   0.1676691   0.0960778   0.7321046  )
         3           Zn  tau(   3) = (   0.0018957   0.3863108   0.2061179  )
         4           Zn  tau(   4) = (  -0.0009959   0.3853236   0.7313591  )
         5           Zn  tau(   5) = (  -0.1662239   0.6731481   0.2035272  )
         6           Mg  tau(   6) = (  -0.1656390   0.6765446   0.7329342  )
         7           Zn  tau(   7) = (   0.5011015   0.0965641   0.2053261  )
         8           Zn  tau(   8) = (   0.4993655   0.0973408   0.7317893  )
         9           Mg  tau(   9) = (   0.3329316   0.3861227   0.2051705  )
        10           Mg  tau(  10) = (   0.3335269   0.3849411   0.7308193  )
        11           Mg  tau(  11) = (   0.1651191   0.6727757   0.2066022  )
        12           Zn  tau(  12) = (   0.1670768   0.6754837   0.7280653  )
        13           Mg  tau(  13) = (   0.8337610   0.0980821   0.2029000  )
        14           Mg  tau(  14) = (   0.8344259   0.0966343   0.7300144  )
        15           Zn  tau(  15) = (   0.6668873   0.3854483   0.2027210  )
        16           Mg  tau(  16) = (   0.6658040   0.3868228   0.7340834  )
        17           Zn  tau(  17) = (   0.4977774   0.6739127   0.2057423  )
        18           Zn  tau(  18) = (   0.5015582   0.6742752   0.7312009  )
        19           Zn  tau(  19) = (  -0.0018289   0.1928622   0.4691590  )
        20           Zn  tau(  20) = (   0.0004272   0.1922519   0.9945687  )
        21           Mg  tau(  21) = (  -0.1688704   0.4818461   0.4684830  )
        22           Zn  tau(  22) = (  -0.1650333   0.4811700   0.9930769  )
        23           Zn  tau(  23) = (  -0.3316807   0.7695480   0.4677266  )
        24           Mg  tau(  24) = (  -0.3351846   0.7695187   0.9975211  )
        25           Zn  tau(  25) = (   0.3327578   0.1921214   0.4670550  )
        26           Mg  tau(  26) = (   0.3330091   0.1922192   0.9955376  )
        27           Mg  tau(  27) = (   0.1652168   0.4794612   0.4696528  )
        28           Zn  tau(  28) = (   0.1662119   0.4824717   0.9922064  )
        29           Zn  tau(  29) = (  -0.0018691   0.7704453   0.4689030  )
        30           Zn  tau(  30) = (   0.0022508   0.7695295   0.9950501  )
        31           Mg  tau(  31) = (   0.6647625   0.1944189   0.4684158  )
        32           Zn  tau(  32) = (   0.6672154   0.1912677   0.9919351  )
        33           Zn  tau(  33) = (   0.5019478   0.4802570   0.4688668  )
        34           Zn  tau(  34) = (   0.4980176   0.4827707   0.9944858  )
        35           Mg  tau(  35) = (   0.3351477   0.7707978   0.4675050  )
        36           Mg  tau(  36) = (   0.3318304   0.7679071   0.9926047  )
        37           O   tau(  37) = (   0.1673080   0.0955637   0.0025027  )
        38           O   tau(  38) = (   0.1658889   0.0961847   0.5285693  )
        39           O   tau(  39) = (   0.0009550   0.3846480   0.0026528  )
        40           O   tau(  40) = (  -0.0020671   0.3855770   0.5280754  )
        41           O   tau(  41) = (  -0.1661296   0.6738182   0.0002969  )
        42           O   tau(  42) = (  -0.1667333   0.6732483   0.5311070  )
        43           O   tau(  43) = (   0.5007906   0.0962200   0.0020418  )
        44           O   tau(  44) = (   0.4991886   0.0966729   0.5283929  )
        45           O   tau(  45) = (   0.3326981   0.3843700   0.0026516  )
        46           O   tau(  46) = (   0.3330420   0.3850263   0.5285103  )
        47           O   tau(  47) = (   0.1675287   0.6728304   0.0047020  )
        48           O   tau(  48) = (   0.1675281   0.6736282   0.5246155  )
        49           O   tau(  49) = (   0.8339169   0.0942865   0.0004890  )
        50           O   tau(  50) = (   0.8311812   0.0964011   0.5277518  )
        51           O   tau(  51) = (   0.6671039   0.3848291  -0.0008114  )
        52           O   tau(  52) = (   0.6672671   0.3850312   0.5317701  )
        53           O   tau(  53) = (   0.4988409   0.6741117   0.0025823  )
        54           O   tau(  54) = (   0.5009511   0.6739189   0.5278383  )
        55           O   tau(  55) = (  -0.0003708   0.1931558   0.2655672  )
        56           O   tau(  56) = (   0.0002471   0.1928422   0.7913900  )
        57           O   tau(  57) = (  -0.1667103   0.4811866   0.2662310  )
        58           O   tau(  58) = (  -0.1671342   0.4833079   0.7899435  )
        59           O   tau(  59) = (  -0.3335688   0.7695908   0.2641015  )
        60           O   tau(  60) = (  -0.3326889   0.7702737   0.7952089  )
        61           O   tau(  61) = (   0.3337407   0.1934170   0.2635365  )
        62           O   tau(  62) = (   0.3333610   0.1936833   0.7937192  )
        63           O   tau(  63) = (   0.1678447   0.4817236   0.2679957  )
        64           O   tau(  64) = (   0.1667976   0.4822234   0.7887021  )
        65           O   tau(  65) = (  -0.0007661   0.7701367   0.2655748  )
        66           O   tau(  66) = (   0.0014943   0.7710625   0.7919614  )
        67           O   tau(  67) = (   0.6675988   0.1933868   0.2662338  )
        68           O   tau(  68) = (   0.6677778   0.1933506   0.7886228  )
        69           O   tau(  69) = (   0.5002236   0.4811298   0.2652486  )
        70           O   tau(  70) = (   0.4988185   0.4817478   0.7915111  )
        71           O   tau(  71) = (   0.3313144   0.7718373   0.2649034  )
        72           O   tau(  72) = (   0.3338794   0.7707788   0.7904770  )

   Crystallographic axes

     site n.     atom                  positions (cryst. coord.)
         1           Zn  tau(   1) = (  0.2223958  0.1121288  0.1953089  )
         2           Zn  tau(   2) = (  0.2232378  0.1106016  0.6956941  )
         3           Zn  tau(   3) = (  0.2247461  0.4458456  0.1957619  )
         4           Zn  tau(   4) = (  0.2214277  0.4445503  0.6948492  )
         5           Zn  tau(   5) = (  0.2220916  0.7770144  0.1931645  )
         6           Mg  tau(   6) = (  0.2247783  0.7807763  0.6962105  )
         7           Zn  tau(   7) = (  0.5567297  0.1111629  0.1952761  )
         8           Zn  tau(   8) = (  0.5555842  0.1119027  0.6955246  )
         9           Mg  tau(   9) = (  0.5555951  0.4454722  0.1949919  )
        10           Mg  tau(  10) = (  0.5556508  0.4439507  0.6944679  )
        11           Mg  tau(  11) = (  0.5531425  0.7764269  0.1962168  )
        12           Zn  tau(  12) = (  0.5568024  0.7793957  0.6917151  )
        13           Mg  tau(  13) = (  0.8901855  0.1127584  0.1931013  )
        14           Mg  tau(  14) = (  0.8901576  0.1109292  0.6939701  )
        15           Zn  tau(  15) = (  0.8890823  0.4445365  0.1927958  )
        16           Mg  tau(  16) = (  0.8889356  0.4459645  0.6976997  )
        17           Zn  tau(  17) = (  0.8863779  0.7775822  0.1955302  )
        18           Zn  tau(  18) = (  0.8905087  0.7778416  0.6948265  )
        19           Zn  tau(  19) = (  0.1095267  0.2224761  0.4457510  )
        20           Zn  tau(  20) = (  0.1115723  0.2216133  0.9450004  )
        21           Mg  tau(  21) = (  0.1091887  0.5561216  0.4449729  )
        22           Zn  tau(  22) = (  0.1127767  0.5551825  0.9434477  )
        23           Zn  tau(  23) = (  0.1123415  0.8882854  0.4441204  )
        24           Mg  tau(  24) = (  0.1089646  0.8880947  0.9475338  )
        25           Zn  tau(  25) = (  0.4436067  0.2214633  0.4438835  )
        26           Mg  tau(  26) = (  0.4440571  0.2214180  0.9460518  )
        27           Mg  tau(  27) = (  0.4418220  0.5532104  0.4462165  )
        28           Zn  tau(  28) = (  0.4446942  0.5565285  0.9427505  )
        29           Zn  tau(  29) = (  0.4425931  0.8891648  0.4453677  )
        30           Zn  tau(  30) = (  0.4463260  0.8879483  0.9453186  )
        31           Mg  tau(  31) = (  0.7768584  0.2239579  0.4453066  )
        32           Zn  tau(  32) = (  0.7776348  0.2201626  0.9427605  )
        33           Zn  tau(  33) = (  0.7789322  0.5539700  0.4456018  )
        34           Zn  tau(  34) = (  0.7765947  0.5567161  0.9450469  )
        35           Mg  tau(  35) = (  0.7797333  0.8894127  0.4441717  )
        36           Mg  tau(  36) = (  0.7748915  0.8859204  0.9431249  )
        37           O   tau(  37) = (  0.2223832  0.1102267  0.0024207  )
        38           O   tau(  38) = (  0.2214646  0.1107867  0.5022926  )
        39           O   tau(  39) = (  0.2227917  0.4439876  0.0024278  )
        40           O   tau(  40) = (  0.2204479  0.4449040  0.5016871  )
        41           O   tau(  41) = (  0.2225175  0.7778486  0.0000534  )
        42           O   tau(  42) = (  0.2217287  0.7770323  0.5044331  )
        43           O   tau(  43) = (  0.5561655  0.1108267  0.0021137  )
        44           O   tau(  44) = (  0.5549672  0.1111927  0.5022559  )
        45           O   tau(  45) = (  0.5542961  0.4435098  0.0025572  )
        46           O   tau(  46) = (  0.5551605  0.4441098  0.5022321  )
        47           O   tau(  47) = (  0.5555285  0.7765493  0.0043706  )
        48           O   tau(  48) = (  0.5561285  0.7773146  0.4983962  )
        49           O   tau(  49) = (  0.8880976  0.1084378  0.0007697  )
        50           O   tau(  50) = (  0.8867245  0.1107221  0.5017773  )
        51           O   tau(  51) = (  0.8888869  0.4438826 -0.0006020  )
        52           O   tau(  52) = (  0.8893104  0.4439563  0.5054611  )
        53           O   tau(  53) = (  0.8875009  0.7778723  0.0024864  )
        54           O   tau(  54) = (  0.8896414  0.7774915  0.5015896  )
        55           O   tau(  55) = (  0.1110989  0.2228753  0.2522971  )
        56           O   tau(  56) = (  0.1116778  0.2223557  0.7519382  )
        57           O   tau(  57) = (  0.1109133  0.5554199  0.2527925  )
        58           O   tau(  58) = (  0.1118544  0.5577119  0.7504275  )
        59           O   tau(  59) = (  0.1104235  0.8883967  0.2506335  )
        60           O   tau(  60) = (  0.1118406  0.8890256  0.7552960  )
        61           O   tau(  61) = (  0.4452816  0.2230193  0.2504987  )
        62           O   tau(  62) = (  0.4451987  0.2231682  0.7542822  )
        63           O   tau(  63) = (  0.4456996  0.5558809  0.2546007  )
        64           O   tau(  64) = (  0.4450816  0.5563026  0.7493795  )
        65           O   tau(  65) = (  0.4434629  0.8888690  0.2521642  )
        66           O   tau(  66) = (  0.4463989  0.8897790  0.7523414  )
        67           O   tau(  67) = (  0.7790441  0.2228257  0.2531931  )
        68           O   tau(  68) = (  0.7793434  0.2226276  0.7495713  )
        69           O   tau(  69) = (  0.7776568  0.5550392  0.2521213  )
        70           O   tau(  70) = (  0.7767506  0.5555957  0.7521793  )
        71           O   tau(  71) = (  0.7764456  0.8906749  0.2516564  )
        72           O   tau(  72) = (  0.7785416  0.8892947  0.7510618  )

     number of k points=    36  Marzari-Vanderbilt smearing, width (Ry)=  0.0010
                       cart. coord. in units 2pi/alat
        k(    1) = (   0.0000000   0.0000000   0.0000000), wk =   0.0312500
        k(    2) = (   0.0000983  -0.0000606   0.2375519), wk =   0.0625000
        k(    3) = (  -0.0001966   0.0001213  -0.4751039), wk =   0.0312500
        k(    4) = (  -0.0001183   0.2885683  -0.0000748), wk =   0.0625000
        k(    5) = (  -0.0000199   0.2885076   0.2374771), wk =   0.0625000
        k(    6) = (  -0.0003149   0.2886895  -0.4751787), wk =   0.0625000
        k(    7) = (  -0.0002166   0.2886289  -0.2376267), wk =   0.0625000
        k(    8) = (   0.0002365  -0.5771365   0.0001496), wk =   0.0312500
        k(    9) = (   0.0003348  -0.5771971   0.2377016), wk =   0.0625000
        k(   10) = (   0.0000399  -0.5770153  -0.4749542), wk =   0.0312500
        k(   11) = (   0.2499410   0.1441813   0.0000675), wk =   0.0625000
        k(   12) = (   0.2500393   0.1441206   0.2376195), wk =   0.0625000
        k(   13) = (   0.2497444   0.1443025  -0.4750363), wk =   0.0625000
        k(   14) = (   0.2498427   0.1442419  -0.2374844), wk =   0.0625000
        k(   15) = (   0.2498227   0.4327495  -0.0000073), wk =   0.0625000
        k(   16) = (   0.2499211   0.4326889   0.2375447), wk =   0.0625000
        k(   17) = (   0.2496261   0.4328708  -0.4751111), wk =   0.0625000
        k(   18) = (   0.2497244   0.4328101  -0.2375592), wk =   0.0625000
        k(   19) = (   0.2501775  -0.4329553   0.0002172), wk =   0.0625000
        k(   20) = (   0.2502758  -0.4330159   0.2377691), wk =   0.0625000
        k(   21) = (   0.2499809  -0.4328340  -0.4748867), wk =   0.0625000
        k(   22) = (   0.2500792  -0.4328946  -0.2373348), wk =   0.0625000
        k(   23) = (   0.2500593  -0.1443870   0.0001424), wk =   0.0625000
        k(   24) = (   0.2501576  -0.1444476   0.2376943), wk =   0.0625000
        k(   25) = (   0.2498626  -0.1442657  -0.4749615), wk =   0.0625000
        k(   26) = (   0.2499609  -0.1443264  -0.2374096), wk =   0.0625000
        k(   27) = (  -0.4998820  -0.2883625  -0.0001351), wk =   0.0312500
        k(   28) = (  -0.4997837  -0.2884231   0.2374169), wk =   0.0625000
        k(   29) = (  -0.5000786  -0.2882413  -0.4752389), wk =   0.0312500
        k(   30) = (  -0.5000003   0.0002057  -0.0002099), wk =   0.0625000
        k(   31) = (  -0.4999019   0.0001451   0.2373420), wk =   0.0625000
        k(   32) = (  -0.5001969   0.0003270  -0.4753138), wk =   0.0625000
        k(   33) = (  -0.5000986   0.0002664  -0.2377618), wk =   0.0625000
        k(   34) = (  -0.4996455  -0.8654990   0.0000145), wk =   0.0312500
        k(   35) = (  -0.4995472  -0.8655597   0.2375665), wk =   0.0625000
        k(   36) = (  -0.4998421  -0.8653778  -0.4750893), wk =   0.0312500

                       cryst. coord.
        k(    1) = (   0.0000000   0.0000000   0.0000000), wk =   0.0312500
        k(    2) = (   0.0000000  -0.0000000   0.2500000), wk =   0.0625000
        k(    3) = (  -0.0000000   0.0000000  -0.5000000), wk =   0.0312500
        k(    4) = (   0.0000000   0.2500000   0.0000000), wk =   0.0625000
        k(    5) = (   0.0000000   0.2500000   0.2500000), wk =   0.0625000
        k(    6) = (   0.0000000   0.2500000  -0.5000000), wk =   0.0625000
        k(    7) = (   0.0000000   0.2500000  -0.2500000), wk =   0.0625000
        k(    8) = (  -0.0000000  -0.5000000  -0.0000000), wk =   0.0312500
        k(    9) = (  -0.0000000  -0.5000000   0.2500000), wk =   0.0625000
        k(   10) = (  -0.0000000  -0.5000000  -0.5000000), wk =   0.0312500
        k(   11) = (   0.2500000  -0.0000000  -0.0000000), wk =   0.0625000
        k(   12) = (   0.2500000  -0.0000000   0.2500000), wk =   0.0625000
        k(   13) = (   0.2500000  -0.0000000  -0.5000000), wk =   0.0625000
        k(   14) = (   0.2500000  -0.0000000  -0.2500000), wk =   0.0625000
        k(   15) = (   0.2500000   0.2500000   0.0000000), wk =   0.0625000
        k(   16) = (   0.2500000   0.2500000   0.2500000), wk =   0.0625000
        k(   17) = (   0.2500000   0.2500000  -0.5000000), wk =   0.0625000
        k(   18) = (   0.2500000   0.2500000  -0.2500000), wk =   0.0625000
        k(   19) = (   0.2500000  -0.5000000  -0.0000000), wk =   0.0625000
        k(   20) = (   0.2500000  -0.5000000   0.2500000), wk =   0.0625000
        k(   21) = (   0.2500000  -0.5000000  -0.5000000), wk =   0.0625000
        k(   22) = (   0.2500000  -0.5000000  -0.2500000), wk =   0.0625000
        k(   23) = (   0.2500000  -0.2500000  -0.0000000), wk =   0.0625000
        k(   24) = (   0.2500000  -0.2500000   0.2500000), wk =   0.0625000
        k(   25) = (   0.2500000  -0.2500000  -0.5000000), wk =   0.0625000
        k(   26) = (   0.2500000  -0.2500000  -0.2500000), wk =   0.0625000
        k(   27) = (  -0.5000000   0.0000000   0.0000000), wk =   0.0312500
        k(   28) = (  -0.5000000  -0.0000000   0.2500000), wk =   0.0625000
        k(   29) = (  -0.5000000   0.0000000  -0.5000000), wk =   0.0312500
        k(   30) = (  -0.5000000   0.2500000   0.0000000), wk =   0.0625000
        k(   31) = (  -0.5000000   0.2500000   0.2500000), wk =   0.0625000
        k(   32) = (  -0.5000000   0.2500000  -0.5000000), wk =   0.0625000
        k(   33) = (  -0.5000000   0.2500000  -0.2500000), wk =   0.0625000
        k(   34) = (  -0.5000000  -0.5000000  -0.0000000), wk =   0.0312500
        k(   35) = (  -0.5000000  -0.5000000   0.2500000), wk =   0.0625000
        k(   36) = (  -0.5000000  -0.5000000  -0.5000000), wk =   0.0312500

     Dense  grid:  1076523 G-vectors     FFT dimensions: ( 135, 135, 144)

     Smooth grid:   357953 G-vectors     FFT dimensions: (  96,  96,  96)

     Dynamical RAM for                 wfc:      20.39 MB

     Dynamical RAM for     wfc (w. buffer):     122.36 MB

     Dynamical RAM for           str. fact:       3.08 MB

     Dynamical RAM for           local pot:       0.00 MB

     Dynamical RAM for          nlocal pot:      48.21 MB

     Dynamical RAM for                qrad:      21.02 MB

     Dynamical RAM for          rho,v,vnew:       6.83 MB

     Dynamical RAM for               rhoin:       2.28 MB

     Dynamical RAM for            rho*nmix:      16.43 MB

     Dynamical RAM for           G-vectors:       4.02 MB

     Dynamical RAM for          h,s,v(r/c):      41.84 MB

     Dynamical RAM for          <psi|beta>:       8.24 MB

     Dynamical RAM for                 psi:      81.57 MB

     Dynamical RAM for                hpsi:      81.57 MB

     Dynamical RAM for                spsi:      81.57 MB

     Dynamical RAM for      wfcinit/wfcrot:      48.39 MB

     Dynamical RAM for           addusdens:      31.83 MB

     Estimated static dynamical RAM per process >     234.59 MB

     Estimated max dynamical RAM per process >     529.39 MB

     Estimated total dynamical RAM >      66.17 GB

     Check: negative core charge=   -0.000002

     Initial potential from superposition of free atoms

     starting charge  791.79390, renormalised to  796.00000
     Starting wfcs are  500 randomized atomic wfcs

     total cpu time spent up to now is       15.3 secs

     Self-consistent Calculation

     iteration #  1     ecut=    60.00 Ry     beta= 0.50
     Davidson diagonalization with overlap
     ethr =  1.00E-02,  avg # of iterations =  4.5

     total cpu time spent up to now is       75.5 secs

     total energy              =  -13055.49683782 Ry
     Harris-Foulkes estimate   =  -13069.86661233 Ry
     estimated scf accuracy    <      21.48297730 Ry

     iteration #  2     ecut=    60.00 Ry     beta= 0.50
     Davidson diagonalization with overlap
     ethr =  2.70E-03,  avg # of iterations =  3.3

     total cpu time spent up to now is      145.6 secs

     total energy              =  -13062.00045424 Ry
     Harris-Foulkes estimate   =  -13067.16456326 Ry
     estimated scf accuracy    <      11.81346384 Ry

     iteration #  3     ecut=    60.00 Ry     beta= 0.50
     Davidson diagonalization with overlap
     ethr =  1.48E-03,  avg # of iterations =  2.0

     total cpu time spent up to now is      191.0 secs

     total energy              =  -13064.09436414 Ry
     Harris-Foulkes estimate   =  -13064.16751152 Ry
     estimated scf accuracy    <       0.20446776 Ry

     iteration #  4     ecut=    60.00 Ry     beta= 0.50
     Davidson diagonalization with overlap
     ethr =  2.57E-05,  avg # of iterations =  5.6

     total cpu time spent up to now is      277.4 secs

     total energy              =  -13064.11068081 Ry
     Harris-Foulkes estimate   =  -13064.15314553 Ry
     estimated scf accuracy    <       0.12010052 Ry

     iteration #  5     ecut=    60.00 Ry     beta= 0.50
     Davidson diagonalization with overlap
     ethr =  1.51E-05,  avg # of iterations =  4.6

     total cpu time spent up to now is      342.9 secs

     total energy              =  -13064.12930369 Ry
     Harris-Foulkes estimate   =  -13064.12963424 Ry
     estimated scf accuracy    <       0.00271175 Ry

     iteration #  6     ecut=    60.00 Ry     beta= 0.50
     Davidson diagonalization with overlap
     ethr =  3.41E-07,  avg # of iterations =  4.7

     total cpu time spent up to now is      435.2 secs

     total energy              =  -13064.12968101 Ry
     Harris-Foulkes estimate   =  -13064.12979354 Ry
     estimated scf accuracy    <       0.00049882 Ry

     iteration #  7     ecut=    60.00 Ry     beta= 0.50
     Davidson diagonalization with overlap
     ethr =  6.27E-08,  avg # of iterations =  2.0

     total cpu time spent up to now is      477.3 secs

     total energy              =  -13064.12979018 Ry
     Harris-Foulkes estimate   =  -13064.12981403 Ry
     estimated scf accuracy    <       0.00013675 Ry

     iteration #  8     ecut=    60.00 Ry     beta= 0.50
     Davidson diagonalization with overlap
     ethr =  1.72E-08,  avg # of iterations =  2.0

     total cpu time spent up to now is      517.7 secs

     total energy              =  -13064.12981888 Ry
     Harris-Foulkes estimate   =  -13064.12981540 Ry
     estimated scf accuracy    <       0.00001256 Ry

     iteration #  9     ecut=    60.00 Ry     beta= 0.50
     Davidson diagonalization with overlap
     ethr =  1.58E-09,  avg # of iterations =  2.0

     total cpu time spent up to now is      559.3 secs

     total energy              =  -13064.12982076 Ry
     Harris-Foulkes estimate   =  -13064.12982087 Ry
     estimated scf accuracy    <       0.00000187 Ry

     iteration # 10     ecut=    60.00 Ry     beta= 0.50
     Davidson diagonalization with overlap
     ethr =  2.35E-10,  avg # of iterations =  2.0

     total cpu time spent up to now is      604.3 secs

     total energy              =  -13064.12982120 Ry
     Harris-Foulkes estimate   =  -13064.12982123 Ry
     estimated scf accuracy    <       0.00000043 Ry

     iteration # 11     ecut=    60.00 Ry     beta= 0.50
     Davidson diagonalization with overlap
     ethr =  5.41E-11,  avg # of iterations =  2.0

     total cpu time spent up to now is      645.3 secs

     total energy              =  -13064.12982128 Ry
     Harris-Foulkes estimate   =  -13064.12982128 Ry
     estimated scf accuracy    <       0.00000003 Ry

     iteration # 12     ecut=    60.00 Ry     beta= 0.50
     Davidson diagonalization with overlap
     ethr =  3.61E-12,  avg # of iterations =  2.0

     total cpu time spent up to now is      692.5 secs

     End of self-consistent calculation

          k = 0.0000 0.0000 0.0000 ( 44635 PWs)   bands (ev):

  -115.4380-115.4366-115.4315-115.4215-115.4194-115.4193-115.4159-115.4154
  -115.4151-115.4150-115.4150-115.4148-115.4147-115.4129-115.4123-115.4117
  -115.4077-115.4071-115.4069-115.4057-115.4042-115.3961 -69.7990 -69.7971
   -69.7944 -69.7936 -69.7920 -69.7909 -69.7904 -69.7873 -69.7839 -69.7838
   -69.7830 -69.7821 -69.7793 -69.7788 -69.7787 -69.7782 -69.7781 -69.7776
   -69.7769 -69.7768 -69.7765 -69.7759 -69.7753 -69.7749 -69.7748 -69.7739
   -69.7734 -69.7719 -69.7712 -69.7712 -69.7710 -69.7710 -69.7707 -69.7705
   -69.7703 -69.7703 -69.7700 -69.7695 -69.7693 -69.7690 -69.7689 -69.7682
   -69.7680 -69.7680 -69.7670 -69.7669 -69.7666 -69.7660 -69.7655 -69.7649
   -69.7644 -69.7643 -69.7631 -69.7627 -69.7627 -69.7620 -69.7611 -69.7592
   -69.7588 -69.7587 -69.7573 -69.7570 -69.7558 -69.7544 -69.7528 -69.7478
   -64.8570 -64.8544 -64.8517 -64.8514 -64.8433 -64.8401 -64.8371 -64.8324
   -64.8259 -64.8244 -64.8172 -64.8148 -64.8044 -64.7932 -31.8534 -31.8504
   -31.8471 -31.8468 -31.8444 -31.8441 -31.8433 -31.8411 -31.8407 -31.8386
   -31.8379 -31.8360 -31.8356 -31.8342 -31.8306 -31.8297 -31.8279 -31.8268
   -31.8261 -31.8241 -31.8237 -31.8231 -31.8200 -31.8177 -31.8173 -31.8161
   -31.8145 -31.8115 -31.8098 -31.8087 -31.8080 -31.8073 -31.8021 -31.8018
   -31.7996 -31.7987 -31.7942 -31.7891 -31.7869 -31.7849 -31.7789 -31.7778
   -10.1093  -9.7980  -9.7439  -9.6950  -9.6471  -9.6265  -9.5936  -9.5707
    -9.5042  -9.4603  -9.4525  -9.4380  -9.4312  -9.3888  -9.3877  -9.3608
    -9.3346  -9.3078  -9.2967  -9.2714  -9.2563  -9.2340  -9.2176  -9.1894
    -9.1689  -9.1559  -9.1424  -9.1224  -9.1122  -9.1080  -9.0992  -9.0723
    -8.9946  -8.9867  -8.9493  -8.9126   1.7237   1.7329   1.7509   1.7692
     1.7764   1.7975   1.8154   1.8291   1.8672   1.8790   1.8869   1.9195
     1.9287   1.9629   1.9864   2.0128   2.0294   2.0428   2.0671   2.0814
     2.1050   2.1232   2.1460   2.1708   2.1764   2.1896   2.1992   2.2233
     2.2312   2.2353   2.2608   2.2669   2.2835   2.2921   2.3067   2.3107
     2.3194   2.3312   2.3339   2.3539   2.3567   2.3782   2.3797   2.3997
     2.4016   2.4257   2.4319   2.4390   2.4464   2.4591   2.4669   2.4857
     2.5038   2.5291   2.5530   2.5772   2.6089   2.6298   2.6340   2.6598
     2.6718   2.7081   2.7175   2.7318   2.7549   2.7726   2.7819   2.7982
     2.8211   2.8341   2.8404   2.8488   2.8698   2.8770   2.8818   2.8912
     2.9155   2.9323   2.9421   2.9512   2.9745   2.9896   2.9952   3.0205
     3.0528   3.0598   3.0646   3.0923   3.1140   3.1222   3.1392   3.1463
     3.1784   3.1876   3.2063   3.2080   3.2156   3.2294   3.2315   3.2480
     3.2602   3.2631   3.2923   3.3010   3.3111   3.3231   3.3259   3.3657
     3.3812   3.3980   3.4511   3.4978   3.5687   3.6262   3.6560   3.6693
     3.7239   3.7651   3.7720   3.8171   3.8317   3.8570   3.8877   3.9116
     3.9297   3.9660   4.0073   4.0337   4.0529   4.1014   4.1589   4.2064
     4.2514   4.2564   4.2920   4.3239   4.3531   4.4313   4.5331   4.5464
     4.5942   4.6089   4.6647   4.6957   4.7348   4.7666   4.7767   4.8024
     4.8206   4.9131   4.9966   5.0079   5.0478   5.1580   5.1863   5.3574
     5.3850   5.4379   5.4797   5.5059   5.5381   5.5732   5.6218   5.6263
     5.7039   5.7254   5.7521   5.7558   5.7579   5.7759   5.8076   5.8499
     5.8790   5.9539   5.9724   6.0255   6.0303   6.0651   6.0945   6.1194
     6.1565   6.1684   6.2196   6.2547   6.2739   6.2914   6.3220   6.3275
     6.3617   6.3713   6.3945   6.4104   6.4484   6.4574   6.4670   6.4705
     6.4802   6.5088   6.5633   6.5882   6.6280   6.6471   6.6609   6.6956
     6.7194   6.7337   6.7512   6.7804   6.8167   6.8465   6.8876   6.9886
     6.9901   7.0324   7.1078   7.2882   7.2993   7.3125   9.0179  11.4887
    11.5359  12.1002  12.1505  12.2715  12.3496  12.4595  12.6298  13.0321
    13.0340  13.0501  13.0593  13.0930  13.1571  13.2721  13.2989  13.3969
    13.4080  13.5205  13.5830  13.7239  15.0746  15.0865  15.1758  15.1871
    15.2874  15.3068  15.3384  15.3685  15.3917  15.3959  15.4270  15.4454
    15.4624  15.4856  15.5077  15.5324  15.5656  15.6335  15.6725  15.6973
    15.7652  15.8935  15.9001  15.9492  16.0091  16.0820  16.1472  16.2380
    16.2804  16.3713  16.3956  16.4321  16.5028  16.5134  16.5181  16.5289
    16.5458  16.6779  17.0253  17.0937  17.1312  17.2762  17.4499  17.5278
    17.5567  17.6378  17.8058  17.8143  17.8493  18.1295  18.3722  18.4417
    18.4802  18.5449  18.6244  18.6946  18.8278  18.8926

     occupation numbers 
     1.0000   1.0000   1.0000   1.0000   1.0000   1.0000   1.0000   1.0000
     1.0000   1.0000   1.0000   1.0000   1.0000   1.0000   1.0000   1.0000
     1.0000   1.0000   1.0000   1.0000   1.0000   1.0000   1.0000   1.0000
     1.0000   1.0000   1.0000   1.0000   1.0000   1.0000   1.0000   1.0000
     1.0000   1.0000   1.0000   1.0000   1.0000   1.0000   1.0000   1.0000
     1.0000   1.0000   1.0000   1.0000   1.0000   1.0000   1.0000   1.0000
     1.0000   1.0000   1.0000   1.0000   1.0000   1.0000   1.0000   1.0000
     1.0000   1.0000   1.0000   1.0000   1.0000   1.0000   1.0000   1.0000
     1.0000   1.0000   1.0000   1.0000   1.0000   1.0000   1.0000   1.0000
     1.0000   1.0000   1.0000   1.0000   1.0000   1.0000   1.0000   1.0000
     1.0000   1.0000   1.0000   1.0000   1.0000   1.0000   1.0000   1.0000
     1.0000   1.0000   1.0000   1.0000   1.0000   1.0000   1.0000   1.0000
     1.0000   1.0000   1.0000   1.0000   1.0000   1.0000   1.0000   1.0000
     1.0000   1.0000   1.0000   1.0000   1.0000   1.0000   1.0000   1.0000
     1.0000   1.0000   1.0000   1.0000   1.0000   1.0000   1.0000   1.0000
     1.0000   1.0000   1.0000   1.0000   1.0000   1.0000   1.0000   1.0000
     1.0000   1.0000   1.0000   1.0000   1.0000   1.0000   1.0000   1.0000
     1.0000   1.0000   1.0000   1.0000   1.0000   1.0000   1.0000   1.0000
     1.0000   1.0000   1.0000   1.0000   1.0000   1.0000   1.0000   1.0000
     1.0000   1.0000   1.0000   1.0000   1.0000   1.0000   1.0000   1.0000
     1.0000   1.0000   1.0000   1.0000   1.0000   1.0000   1.0000   1.0000
     1.0000   1.0000   1.0000   1.0000   1.0000   1.0000   1.0000   1.0000
     1.0000   1.0000   1.0000   1.0000   1.0000   1.0000   1.0000   1.0000
     1.0000   1.0000   1.0000   1.0000   1.0000   1.0000   1.0000   1.0000
     1.0000   1.0000   1.0000   1.0000   1.0000   1.0000   1.0000   1.0000
     1.0000   1.0000   1.0000   1.0000   1.0000   1.0000   1.0000   1.0000
     1.0000   1.0000   1.0000   1.0000   1.0000   1.0000   1.0000   1.0000
     1.0000   1.0000   1.0000   1.0000   1.0000   1.0000   1.0000   1.0000
     1.0000   1.0000   1.0000   1.0000   1.0000   1.0000   1.0000   1.0000
     1.0000   1.0000   1.0000   1.0000   1.0000   1.0000   1.0000   1.0000
     1.0000   1.0000   1.0000   1.0000   1.0000   1.0000   1.0000   1.0000
     1.0000   1.0000   1.0000   1.0000   1.0000   1.0000   1.0000   1.0000
     1.0000   1.0000   1.0000   1.0000   1.0000   1.0000   1.0000   1.0000
     1.0000   1.0000   1.0000   1.0000   1.0000   1.0000   1.0000   1.0000
     1.0000   1.0000   1.0000   1.0000   1.0000   1.0000   1.0000   1.0000
     1.0000   1.0000   1.0000   1.0000   1.0000   1.0000   1.0000   1.0000
     1.0000   1.0000   1.0000   1.0000   1.0000   1.0000   1.0000   1.0000
     1.0000   1.0000   1.0000   1.0000   1.0000   1.0000   1.0000   1.0000
     1.0000   1.0000   1.0000   1.0000   1.0000   1.0000   1.0000   1.0000
     1.0000   1.0000   1.0000   1.0000   1.0000   1.0000   1.0000   1.0000
     1.0000   1.0000   1.0000   1.0000   1.0000   1.0000   1.0000   1.0000
     1.0000   1.0000   1.0000   1.0000   1.0000   1.0000   1.0000   1.0000
     1.0000   1.0000   1.0000   1.0000   1.0000   1.0000   1.0000   1.0000
     1.0000   1.0000   1.0000   1.0000   1.0000   1.0000   1.0000   1.0000
     1.0000   1.0000   1.0000   1.0000   1.0000   1.0000   1.0000   1.0000
     1.0000   1.0000   1.0000   1.0000   1.0000   1.0000   1.0000   1.0000
     1.0000   1.0000   1.0000   1.0000   1.0000   1.0000   1.0000   1.0000
     1.0000   1.0000   1.0000   1.0000   1.0000   1.0000   1.0000   1.0000
     1.0000   1.0000   1.0000   1.0000   1.0000   1.0000   1.0000   1.0000
     1.0000   1.0000   1.0000   1.0000   1.0000   1.0000   0.0000   0.0000
     0.0000   0.0000   0.0000   0.0000   0.0000   0.0000   0.0000   0.0000
     0.0000   0.0000   0.0000   0.0000   0.0000   0.0000   0.0000   0.0000
     0.0000   0.0000   0.0000   0.0000   0.0000   0.0000   0.0000   0.0000
     0.0000   0.0000   0.0000   0.0000   0.0000   0.0000   0.0000   0.0000
     0.0000   0.0000   0.0000   0.0000   0.0000   0.0000   0.0000   0.0000
     0.0000   0.0000   0.0000   0.0000   0.0000   0.0000   0.0000   0.0000
     0.0000   0.0000   0.0000   0.0000   0.0000   0.0000   0.0000   0.0000
     0.0000   0.0000   0.0000   0.0000   0.0000   0.0000   0.0000   0.0000
     0.0000   0.0000   0.0000   0.0000   0.0000   0.0000   0.0000   0.0000
     0.0000   0.0000   0.0000   0.0000   0.0000   0.0000

          k = 0.0001-0.0001 0.2376 ( 44781 PWs)   bands (ev):

  -115.4380-115.4366-115.4315-115.4215-115.4194-115.4193-115.4159-115.4154
  -115.4151-115.4150-115.4150-115.4148-115.4147-115.4129-115.4123-115.4117
  -115.4077-115.4071-115.4069-115.4057-115.4042-115.3961 -69.7990 -69.7971
   -69.7944 -69.7936 -69.7920 -69.7909 -69.7904 -69.7873 -69.7839 -69.7838
   -69.7830 -69.7821 -69.7793 -69.7788 -69.7787 -69.7782 -69.7781 -69.7776
   -69.7769 -69.7768 -69.7765 -69.7759 -69.7753 -69.7749 -69.7748 -69.7739
   -69.7734 -69.7719 -69.7712 -69.7712 -69.7710 -69.7710 -69.7707 -69.7705
   -69.7703 -69.7703 -69.7700 -69.7695 -69.7693 -69.7690 -69.7689 -69.7682
   -69.7680 -69.7680 -69.7670 -69.7669 -69.7666 -69.7660 -69.7655 -69.7649
   -69.7644 -69.7643 -69.7631 -69.7627 -69.7627 -69.7620 -69.7611 -69.7592
   -69.7588 -69.7587 -69.7573 -69.7570 -69.7558 -69.7544 -69.7528 -69.7478
   -64.8570 -64.8544 -64.8517 -64.8514 -64.8433 -64.8401 -64.8371 -64.8324
   -64.8259 -64.8244 -64.8172 -64.8148 -64.8044 -64.7932 -31.8534 -31.8504
   -31.8473 -31.8469 -31.8441 -31.8441 -31.8433 -31.8411 -31.8407 -31.8386
   -31.8382 -31.8360 -31.8356 -31.8342 -31.8306 -31.8296 -31.8278 -31.8268
   -31.8261 -31.8241 -31.8237 -31.8232 -31.8199 -31.8177 -31.8173 -31.8161
   -31.8145 -31.8115 -31.8098 -31.8087 -31.8080 -31.8072 -31.8021 -31.8018
   -31.7996 -31.7987 -31.7942 -31.7891 -31.7868 -31.7849 -31.7789 -31.7778
   -10.0834  -9.8889  -9.6978  -9.6820  -9.6370  -9.6221  -9.5772  -9.5395
    -9.5116  -9.5047  -9.4807  -9.4538  -9.4323  -9.3982  -9.3871  -9.3618
    -9.3209  -9.3069  -9.2826  -9.2634  -9.2515  -9.2173  -9.2116  -9.1858
    -9.1626  -9.1577  -9.1398  -9.1204  -9.1146  -9.1076  -9.0976  -9.0816
    -8.9992  -8.9906  -8.9527  -8.9176   1.7327   1.7503   1.7639   1.7806
     1.8043   1.8163   1.8371   1.8489   1.8742   1.8817   1.8987   1.9173
     1.9491   1.9695   2.0012   2.0308   2.0479   2.0572   2.0714   2.0849
     2.1119   2.1179   2.1376   2.1620   2.1747   2.1831   2.2032   2.2106
     2.2266   2.2297   2.2427   2.2507   2.2697   2.2816   2.2914   2.3052
     2.3138   2.3312   2.3393   2.3486   2.3680   2.3723   2.3883   2.3991
     2.4089   2.4128   2.4286   2.4418   2.4508   2.4580   2.4648   2.4838
     2.4998   2.5193   2.5383   2.5702   2.5867   2.6046   2.6200   2.6383
     2.6577   2.6788   2.6871   2.7056   2.7276   2.7487   2.7629   2.7664
     2.7847   2.8072   2.8250   2.8316   2.8425   2.8616   2.8774   2.8901
     2.8989   2.9051   2.9227   2.9430   2.9630   2.9907   2.9965   3.0059
     3.0340   3.0421   3.0571   3.0862   3.1011   3.1157   3.1353   3.1452
     3.1793   3.1978   3.2040   3.2090   3.2250   3.2339   3.2469   3.2561
     3.2667   3.2805   3.2951   3.2966   3.3071   3.3208   3.3415   3.3514
     3.3664   3.3972   3.4807   3.5646   3.6189   3.6476   3.6938   3.7143
     3.7470   3.7714   3.7903   3.8235   3.8548   3.8887   3.9083   3.9276
     3.9546   3.9798   4.0408   4.0603   4.1017   4.1337   4.1743   4.2299
     4.2633   4.3115   4.3192   4.3916   4.4005   4.4661   4.4916   4.5217
     4.5491   4.5857   4.6026   4.6232   4.6771   4.7095   4.7718   4.8010
     4.8815   4.9554   5.0640   5.0918   5.1473   5.1985   5.3005   5.3675
     5.4095   5.4434   5.4674   5.4918   5.5428   5.5722   5.5913   5.6121
     5.6518   5.6670   5.6864   5.6959   5.7505   5.7579   5.7857   5.7987
     5.8337   5.8553   5.8781   5.9232   5.9515   5.9814   6.0272   6.0648
     6.0933   6.1216   6.1533   6.2184   6.2719   6.2973   6.3329   6.3395
     6.3723   6.4048   6.4287   6.4388   6.4696   6.4892   6.5163   6.5506
     6.5724   6.5980   6.6176   6.6532   6.6694   6.6990   6.7028   6.7184
     6.7468   6.7552   6.7722   6.7863   6.8150   6.8450   6.8649   6.9107
     6.9544   7.0905   7.1064   7.1425   7.2755   7.2977   9.3326  10.7686
    12.0620  12.1281  12.1841  12.3073  12.3789  12.5046  12.5719  12.6250
    12.6389  12.7860  12.8761  12.9820  13.0819  13.3580  13.6643  13.7205
    13.8310  13.8420  13.9183  14.0254  14.8059  14.8255  14.9392  14.9984
    15.0672  15.1214  15.1361  15.1703  15.3237  15.3297  15.4057  15.4244
    15.4584  15.4694  15.5728  15.6423  15.6995  15.7087  15.7487  15.8139
    15.8965  15.9077  15.9915  16.0315  16.1069  16.1757  16.2316  16.3112
    16.3408  16.3516  16.3678  16.4262  16.4582  16.5229  16.5355  16.5574
    16.6387  16.7644  17.0621  17.0755  17.1925  17.2553  17.3212  17.3847
    17.5256  17.5646  17.6923  17.8085  17.8829  18.0046  18.1975  18.2985
    18.3411  18.4390  18.5306  18.6670  18.7753  18.8531

     occupation numbers 
     1.0000   1.0000   1.0000   1.0000   1.0000   1.0000   1.0000   1.0000
     1.0000   1.0000   1.0000   1.0000   1.0000   1.0000   1.0000   1.0000
     1.0000   1.0000   1.0000   1.0000   1.0000   1.0000   1.0000   1.0000
     1.0000   1.0000   1.0000   1.0000   1.0000   1.0000   1.0000   1.0000
     1.0000   1.0000   1.0000   1.0000   1.0000   1.0000   1.0000   1.0000
     1.0000   1.0000   1.0000   1.0000   1.0000   1.0000   1.0000   1.0000
     1.0000   1.0000   1.0000   1.0000   1.0000   1.0000   1.0000   1.0000
     1.0000   1.0000   1.0000   1.0000   1.0000   1.0000   1.0000   1.0000
     1.0000   1.0000   1.0000   1.0000   1.0000   1.0000   1.0000   1.0000
     1.0000   1.0000   1.0000   1.0000   1.0000   1.0000   1.0000   1.0000
     1.0000   1.0000   1.0000   1.0000   1.0000   1.0000   1.0000   1.0000
     1.0000   1.0000   1.0000   1.0000   1.0000   1.0000   1.0000   1.0000
     1.0000   1.0000   1.0000   1.0000   1.0000   1.0000   1.0000   1.0000
     1.0000   1.0000   1.0000   1.0000   1.0000   1.0000   1.0000   1.0000
     1.0000   1.0000   1.0000   1.0000   1.0000   1.0000   1.0000   1.0000
     1.0000   1.0000   1.0000   1.0000   1.0000   1.0000   1.0000   1.0000
     1.0000   1.0000   1.0000   1.0000   1.0000   1.0000   1.0000   1.0000
     1.0000   1.0000   1.0000   1.0000   1.0000   1.0000   1.0000   1.0000
     1.0000   1.0000   1.0000   1.0000   1.0000   1.0000   1.0000   1.0000
     1.0000   1.0000   1.0000   1.0000   1.0000   1.0000   1.0000   1.0000
     1.0000   1.0000   1.0000   1.0000   1.0000   1.0000   1.0000   1.0000
     1.0000   1.0000   1.0000   1.0000   1.0000   1.0000   1.0000   1.0000
     1.0000   1.0000   1.0000   1.0000   1.0000   1.0000   1.0000   1.0000
     1.0000   1.0000   1.0000   1.0000   1.0000   1.0000   1.0000   1.0000
     1.0000   1.0000   1.0000   1.0000   1.0000   1.0000   1.0000   1.0000
     1.0000   1.0000   1.0000   1.0000   1.0000   1.0000   1.0000   1.0000
     1.0000   1.0000   1.0000   1.0000   1.0000   1.0000   1.0000   1.0000
     1.0000   1.0000   1.0000   1.0000   1.0000   1.0000   1.0000   1.0000
     1.0000   1.0000   1.0000   1.0000   1.0000   1.0000   1.0000   1.0000
     1.0000   1.0000   1.0000   1.0000   1.0000   1.0000   1.0000   1.0000
     1.0000   1.0000   1.0000   1.0000   1.0000   1.0000   1.0000   1.0000
     1.0000   1.0000   1.0000   1.0000   1.0000   1.0000   1.0000   1.0000
     1.0000   1.0000   1.0000   1.0000   1.0000   1.0000   1.0000   1.0000
     1.0000   1.0000   1.0000   1.0000   1.0000   1.0000   1.0000   1.0000
     1.0000   1.0000   1.0000   1.0000   1.0000   1.0000   1.0000   1.0000
     1.0000   1.0000   1.0000   1.0000   1.0000   1.0000   1.0000   1.0000
     1.0000   1.0000   1.0000   1.0000   1.0000   1.0000   1.0000   1.0000
     1.0000   1.0000   1.0000   1.0000   1.0000   1.0000   1.0000   1.0000
     1.0000   1.0000   1.0000   1.0000   1.0000   1.0000   1.0000   1.0000
     1.0000   1.0000   1.0000   1.0000   1.0000   1.0000   1.0000   1.0000
     1.0000   1.0000   1.0000   1.0000   1.0000   1.0000   1.0000   1.0000
     1.0000   1.0000   1.0000   1.0000   1.0000   1.0000   1.0000   1.0000
     1.0000   1.0000   1.0000   1.0000   1.0000   1.0000   1.0000   1.0000
     1.0000   1.0000   1.0000   1.0000   1.0000   1.0000   1.0000   1.0000
     1.0000   1.0000   1.0000   1.0000   1.0000   1.0000   1.0000   1.0000
     1.0000   1.0000   1.0000   1.0000   1.0000   1.0000   1.0000   1.0000
     1.0000   1.0000   1.0000   1.0000   1.0000   1.0000   1.0000   1.0000
     1.0000   1.0000   1.0000   1.0000   1.0000   1.0000   1.0000   1.0000
     1.0000   1.0000   1.0000   1.0000   1.0000   1.0000   1.0000   1.0000
     1.0000   1.0000   1.0000   1.0000   1.0000   1.0000   0.0000   0.0000
     0.0000   0.0000   0.0000   0.0000   0.0000   0.0000   0.0000   0.0000
     0.0000   0.0000   0.0000   0.0000   0.0000   0.0000   0.0000   0.0000
     0.0000   0.0000   0.0000   0.0000   0.0000   0.0000   0.0000   0.0000
     0.0000   0.0000   0.0000   0.0000   0.0000   0.0000   0.0000   0.0000
     0.0000   0.0000   0.0000   0.0000   0.0000   0.0000   0.0000   0.0000
     0.0000   0.0000   0.0000   0.0000   0.0000   0.0000   0.0000   0.0000
     0.0000   0.0000   0.0000   0.0000   0.0000   0.0000   0.0000   0.0000
     0.0000   0.0000   0.0000   0.0000   0.0000   0.0000   0.0000   0.0000
     0.0000   0.0000   0.0000   0.0000   0.0000   0.0000   0.0000   0.0000
     0.0000   0.0000   0.0000   0.0000   0.0000   0.0000

          k =-0.0002 0.0001-0.4751 ( 44768 PWs)   bands (ev):

  -115.4380-115.4366-115.4315-115.4215-115.4194-115.4193-115.4159-115.4154
  -115.4151-115.4150-115.4150-115.4148-115.4147-115.4129-115.4123-115.4117
  -115.4077-115.4071-115.4069-115.4057-115.4042-115.3961 -69.7990 -69.7971
   -69.7944 -69.7936 -69.7920 -69.7909 -69.7904 -69.7873 -69.7839 -69.7838
   -69.7830 -69.7821 -69.7793 -69.7788 -69.7787 -69.7782 -69.7781 -69.7776
   -69.7769 -69.7768 -69.7765 -69.7759 -69.7753 -69.7749 -69.7748 -69.7739
   -69.7734 -69.7719 -69.7712 -69.7712 -69.7710 -69.7710 -69.7707 -69.7705
   -69.7703 -69.7703 -69.7700 -69.7695 -69.7693 -69.7690 -69.7689 -69.7682
   -69.7680 -69.7680 -69.7670 -69.7669 -69.7666 -69.7660 -69.7655 -69.7649
   -69.7644 -69.7643 -69.7631 -69.7627 -69.7627 -69.7620 -69.7611 -69.7592
   -69.7588 -69.7587 -69.7573 -69.7570 -69.7558 -69.7544 -69.7528 -69.7478
   -64.8570 -64.8544 -64.8517 -64.8514 -64.8433 -64.8401 -64.8371 -64.8324
   -64.8259 -64.8244 -64.8172 -64.8148 -64.8044 -64.7932 -31.8534 -31.8503
   -31.8474 -31.8469 -31.8441 -31.8438 -31.8434 -31.8411 -31.8408 -31.8386
   -31.8385 -31.8360 -31.8356 -31.8342 -31.8305 -31.8296 -31.8277 -31.8268
   -31.8261 -31.8241 -31.8237 -31.8232 -31.8199 -31.8177 -31.8173 -31.8161
   -31.8144 -31.8115 -31.8098 -31.8087 -31.8081 -31.8072 -31.8020 -31.8018
   -31.7996 -31.7987 -31.7942 -31.7891 -31.7868 -31.7849 -31.7789 -31.7778
   -10.0290  -9.9772  -9.6759  -9.6628  -9.6247  -9.6147  -9.5730  -9.5473
    -9.5379  -9.5036  -9.4848  -9.4550  -9.4451  -9.4050  -9.3892  -9.3708
    -9.3262  -9.3049  -9.2640  -9.2518  -9.2379  -9.2132  -9.2014  -9.1832
    -9.1683  -9.1530  -9.1336  -9.1222  -9.1108  -9.1038  -9.0972  -9.0935
    -9.0065  -8.9931  -8.9562  -8.9230   1.7461   1.7561   1.7836   1.7968
     1.8254   1.8345   1.8527   1.8627   1.8760   1.9090   1.9221   1.9441
     1.9631   1.9801   2.0136   2.0482   2.0568   2.0695   2.0805   2.0971
     2.1101   2.1206   2.1395   2.1473   2.1583   2.1710   2.1879   2.1960
     2.2053   2.2163   2.2283   2.2508   2.2565   2.2725   2.2809   2.3045
     2.3122   2.3302   2.3361   2.3563   2.3673   2.3757   2.4003   2.4042
     2.4091   2.4199   2.4312   2.4331   2.4482   2.4639   2.4696   2.4852
     2.4941   2.5104   2.5131   2.5250   2.5358   2.5508   2.5933   2.6075
     2.6340   2.6530   2.6684   2.6907   2.7000   2.7194   2.7372   2.7673
     2.7867   2.7898   2.8061   2.8286   2.8354   2.8446   2.8492   2.8735
     2.8805   2.8937   2.9187   2.9372   2.9604   2.9695   3.0034   3.0099
     3.0184   3.0391   3.0489   3.0783   3.0893   3.1193   3.1358   3.1576
     3.1748   3.1882   3.2085   3.2206   3.2290   3.2497   3.2535   3.2606
     3.2725   3.2880   3.2971   3.3054   3.3062   3.3168   3.3337   3.3524
     3.3651   3.3988   3.5682   3.6156   3.6306   3.6814   3.7059   3.7366
     3.7559   3.7605   3.7960   3.8253   3.8815   3.9067   3.9271   3.9572
     4.0009   4.0404   4.0735   4.0989   4.1283   4.1471   4.1627   4.1811
     4.2116   4.2490   4.3113   4.4086   4.4255   4.4614   4.4654   4.5554
     4.5784   4.6045   4.6302   4.7091   4.7621   4.7966   4.8487   4.8773
     4.9861   5.0095   5.0503   5.0617   5.1805   5.2379   5.2775   5.3058
     5.3257   5.3575   5.3775   5.3914   5.4451   5.4495   5.4785   5.5269
     5.6841   5.6948   5.7121   5.7299   5.7548   5.7704   5.8089   5.8190
     5.8525   5.8865   5.8928   5.9281   5.9435   5.9649   5.9804   5.9917
     6.0017   6.0493   6.0726   6.0817   6.2760   6.3093   6.3382   6.3507
     6.3898   6.4196   6.4495   6.4628   6.4973   6.5280   6.5452   6.5945
     6.6090   6.6385   6.6406   6.6814   6.7077   6.7125   6.7429   6.7481
     6.7604   6.7966   6.8013   6.8148   6.8240   6.8486   6.8636   6.8741
     6.8831   6.9109   7.1605   7.1763   7.2537   7.2770   9.9567  10.0477
    12.1964  12.2275  12.2673  12.3290  12.3423  12.3533  12.4238  12.4992
    12.6295  12.7459  12.8020  12.8879  13.0328  13.1074  14.2412  14.2556
    14.2839  14.3007  14.3338  14.3614  14.4133  14.4629  14.4975  14.5445
    14.5748  14.6512  15.2068  15.2127  15.2393  15.2446  15.4085  15.4274
    15.4617  15.4733  15.6058  15.6523  15.6779  15.7774  15.9015  15.9300
    16.0191  16.0371  16.0561  16.0770  16.0932  16.1372  16.2163  16.2633
    16.3868  16.4155  16.4219  16.4488  16.4695  16.5186  16.6279  16.6837
    16.7344  16.8538  16.9386  17.0184  17.1201  17.1511  17.3421  17.3769
    17.4461  17.6340  17.7121  17.7347  17.8121  17.8783  18.0202  18.0706
    18.3445  18.4372  18.4971  18.6483  18.8160  18.8319

     occupation numbers 
     1.0000   1.0000   1.0000   1.0000   1.0000   1.0000   1.0000   1.0000
     1.0000   1.0000   1.0000   1.0000   1.0000   1.0000   1.0000   1.0000
     1.0000   1.0000   1.0000   1.0000   1.0000   1.0000   1.0000   1.0000
     1.0000   1.0000   1.0000   1.0000   1.0000   1.0000   1.0000   1.0000
     1.0000   1.0000   1.0000   1.0000   1.0000   1.0000   1.0000   1.0000
     1.0000   1.0000   1.0000   1.0000   1.0000   1.0000   1.0000   1.0000
     1.0000   1.0000   1.0000   1.0000   1.0000   1.0000   1.0000   1.0000
     1.0000   1.0000   1.0000   1.0000   1.0000   1.0000   1.0000   1.0000
     1.0000   1.0000   1.0000   1.0000   1.0000   1.0000   1.0000   1.0000
     1.0000   1.0000   1.0000   1.0000   1.0000   1.0000   1.0000   1.0000
     1.0000   1.0000   1.0000   1.0000   1.0000   1.0000   1.0000   1.0000
     1.0000   1.0000   1.0000   1.0000   1.0000   1.0000   1.0000   1.0000
     1.0000   1.0000   1.0000   1.0000   1.0000   1.0000   1.0000   1.0000
     1.0000   1.0000   1.0000   1.0000   1.0000   1.0000   1.0000   1.0000
     1.0000   1.0000   1.0000   1.0000   1.0000   1.0000   1.0000   1.0000
     1.0000   1.0000   1.0000   1.0000   1.0000   1.0000   1.0000   1.0000
     1.0000   1.0000   1.0000   1.0000   1.0000   1.0000   1.0000   1.0000
     1.0000   1.0000   1.0000   1.0000   1.0000   1.0000   1.0000   1.0000
     1.0000   1.0000   1.0000   1.0000   1.0000   1.0000   1.0000   1.0000
     1.0000   1.0000   1.0000   1.0000   1.0000   1.0000   1.0000   1.0000
     1.0000   1.0000   1.0000   1.0000   1.0000   1.0000   1.0000   1.0000
     1.0000   1.0000   1.0000   1.0000   1.0000   1.0000   1.0000   1.0000
     1.0000   1.0000   1.0000   1.0000   1.0000   1.0000   1.0000   1.0000
     1.0000   1.0000   1.0000   1.0000   1.0000   1.0000   1.0000   1.0000
     1.0000   1.0000   1.0000   1.0000   1.0000   1.0000   1.0000   1.0000
     1.0000   1.0000   1.0000   1.0000   1.0000   1.0000   1.0000   1.0000
     1.0000   1.0000   1.0000   1.0000   1.0000   1.0000   1.0000   1.0000
     1.0000   1.0000   1.0000   1.0000   1.0000   1.0000   1.0000   1.0000
     1.0000   1.0000   1.0000   1.0000   1.0000   1.0000   1.0000   1.0000
     1.0000   1.0000   1.0000   1.0000   1.0000   1.0000   1.0000   1.0000
     1.0000   1.0000   1.0000   1.0000   1.0000   1.0000   1.0000   1.0000
     1.0000   1.0000   1.0000   1.0000   1.0000   1.0000   1.0000   1.0000
     1.0000   1.0000   1.0000   1.0000   1.0000   1.0000   1.0000   1.0000
     1.0000   1.0000   1.0000   1.0000   1.0000   1.0000   1.0000   1.0000
     1.0000   1.0000   1.0000   1.0000   1.0000   1.0000   1.0000   1.0000
     1.0000   1.0000   1.0000   1.0000   1.0000   1.0000   1.0000   1.0000
     1.0000   1.0000   1.0000   1.0000   1.0000   1.0000   1.0000   1.0000
     1.0000   1.0000   1.0000   1.0000   1.0000   1.0000   1.0000   1.0000
     1.0000   1.0000   1.0000   1.0000   1.0000   1.0000   1.0000   1.0000
     1.0000   1.0000   1.0000   1.0000   1.0000   1.0000   1.0000   1.0000
     1.0000   1.0000   1.0000   1.0000   1.0000   1.0000   1.0000   1.0000
     1.0000   1.0000   1.0000   1.0000   1.0000   1.0000   1.0000   1.0000
     1.0000   1.0000   1.0000   1.0000   1.0000   1.0000   1.0000   1.0000
     1.0000   1.0000   1.0000   1.0000   1.0000   1.0000   1.0000   1.0000
     1.0000   1.0000   1.0000   1.0000   1.0000   1.0000   1.0000   1.0000
     1.0000   1.0000   1.0000   1.0000   1.0000   1.0000   1.0000   1.0000
     1.0000   1.0000   1.0000   1.0000   1.0000   1.0000   1.0000   1.0000
     1.0000   1.0000   1.0000   1.0000   1.0000   1.0000   1.0000   1.0000
     1.0000   1.0000   1.0000   1.0000   1.0000   1.0000   1.0000   1.0000
     1.0000   1.0000   1.0000   1.0000   1.0000   1.0000   0.0000   0.0000
     0.0000   0.0000   0.0000   0.0000   0.0000   0.0000   0.0000   0.0000
     0.0000   0.0000   0.0000   0.0000   0.0000   0.0000   0.0000   0.0000
     0.0000   0.0000   0.0000   0.0000   0.0000   0.0000   0.0000   0.0000
     0.0000   0.0000   0.0000   0.0000   0.0000   0.0000   0.0000   0.0000
     0.0000   0.0000   0.0000   0.0000   0.0000   0.0000   0.0000   0.0000
     0.0000   0.0000   0.0000   0.0000   0.0000   0.0000   0.0000   0.0000
     0.0000   0.0000   0.0000   0.0000   0.0000   0.0000   0.0000   0.0000
     0.0000   0.0000   0.0000   0.0000   0.0000   0.0000   0.0000   0.0000
     0.0000   0.0000   0.0000   0.0000   0.0000   0.0000   0.0000   0.0000
     0.0000   0.0000   0.0000   0.0000   0.0000   0.0000

          k =-0.0001 0.2886-0.0001 ( 44708 PWs)   bands (ev):

  -115.4380-115.4366-115.4315-115.4215-115.4194-115.4193-115.4159-115.4154
  -115.4151-115.4150-115.4150-115.4148-115.4147-115.4129-115.4123-115.4117
  -115.4077-115.4071-115.4069-115.4057-115.4042-115.3961 -69.7990 -69.7971
   -69.7944 -69.7936 -69.7920 -69.7909 -69.7904 -69.7873 -69.7839 -69.7838
   -69.7830 -69.7821 -69.7793 -69.7788 -69.7787 -69.7782 -69.7781 -69.7776
   -69.7769 -69.7768 -69.7765 -69.7759 -69.7753 -69.7749 -69.7748 -69.7739
   -69.7734 -69.7719 -69.7712 -69.7712 -69.7710 -69.7710 -69.7707 -69.7705
   -69.7703 -69.7703 -69.7700 -69.7695 -69.7693 -69.7690 -69.7689 -69.7681
   -69.7680 -69.7680 -69.7670 -69.7669 -69.7666 -69.7660 -69.7655 -69.7649
   -69.7644 -69.7643 -69.7631 -69.7627 -69.7627 -69.7620 -69.7611 -69.7592
   -69.7588 -69.7587 -69.7573 -69.7570 -69.7558 -69.7544 -69.7528 -69.7478
   -64.8570 -64.8544 -64.8517 -64.8514 -64.8433 -64.8401 -64.8371 -64.8324
   -64.8259 -64.8244 -64.8172 -64.8148 -64.8044 -64.7932 -31.8534 -31.8504
   -31.8471 -31.8468 -31.8444 -31.8441 -31.8433 -31.8411 -31.8407 -31.8386
   -31.8379 -31.8360 -31.8356 -31.8342 -31.8306 -31.8297 -31.8279 -31.8268
   -31.8261 -31.8241 -31.8237 -31.8231 -31.8200 -31.8177 -31.8173 -31.8161
   -31.8146 -31.8115 -31.8098 -31.8087 -31.8079 -31.8073 -31.8021 -31.8018
   -31.7995 -31.7987 -31.7942 -31.7890 -31.7869 -31.7849 -31.7789 -31.7778
   -10.0718  -9.8421  -9.7476  -9.7111  -9.6930  -9.6107  -9.5834  -9.5408
    -9.5032  -9.4807  -9.4607  -9.4439  -9.4221  -9.3916  -9.3682  -9.3478
    -9.3270  -9.3075  -9.3021  -9.2567  -9.2442  -9.2322  -9.2108  -9.1895
    -9.1819  -9.1639  -9.1526  -9.1243  -9.1194  -9.1037  -9.0953  -9.0700
    -8.9939  -8.9784  -8.9522  -8.9139   1.7338   1.7496   1.7649   1.7805
     1.7976   1.8131   1.8309   1.8451   1.8745   1.8883   1.9035   1.9214
     1.9507   1.9684   1.9908   2.0162   2.0342   2.0590   2.0734   2.0772
     2.0989   2.1118   2.1442   2.1643   2.1782   2.1866   2.1986   2.2105
     2.2295   2.2354   2.2505   2.2607   2.2677   2.2776   2.2994   2.3058
     2.3162   2.3269   2.3412   2.3495   2.3587   2.3646   2.3789   2.3854
     2.3932   2.4041   2.4167   2.4263   2.4379   2.4613   2.4711   2.4850
     2.5022   2.5288   2.5303   2.5470   2.5637   2.5741   2.6114   2.6333
     2.6612   2.6961   2.7186   2.7244   2.7385   2.7582   2.7723   2.7847
     2.7919   2.8190   2.8292   2.8544   2.8629   2.8708   2.8782   2.8920
     2.9168   2.9232   2.9344   2.9505   2.9730   2.9872   3.0050   3.0234
     3.0352   3.0668   3.0726   3.0798   3.0933   3.1197   3.1330   3.1581
     3.1724   3.1811   3.1931   3.2126   3.2250   3.2329   3.2558   3.2679
     3.2723   3.2862   3.2972   3.3008   3.3064   3.3277   3.3426   3.3638
     3.3708   3.4020   3.4377   3.4773   3.5230   3.5806   3.6258   3.6340
     3.6909   3.7333   3.7712   3.7844   3.8157   3.8376   3.8702   3.9030
     3.9294   3.9505   4.0132   4.0425   4.0614   4.1207   4.1688   4.2347
     4.2446   4.3177   4.3337   4.4478   4.5000   4.5553   4.6040   4.6418
     4.6607   4.6992   4.7352   4.7927   4.8288   4.8405   4.9008   4.9376
     4.9760   4.9991   5.0251   5.0387   5.0840   5.1568   5.1707   5.2165
     5.2655   5.2913   5.4144   5.4242   5.5075   5.6077   5.6360   5.6898
     5.7102   5.7321   5.7610   5.7959   5.8176   5.8442   5.8533   5.8771
     5.8925   5.9371   5.9742   6.0049   6.0210   6.0445   6.0728   6.0862
     6.1212   6.1370   6.1666   6.2189   6.2383   6.2520   6.2981   6.3242
     6.3389   6.3732   6.4069   6.4122   6.4291   6.4521   6.4597   6.4779
     6.4865   6.5046   6.5131   6.5298   6.5493   6.5624   6.6017   6.6140
     6.6465   6.6736   6.7031   6.8092   6.8287   6.8579   6.8890   6.9319
     6.9680   6.9847   7.0253   7.0774   7.2497   7.2631   9.4536  11.2728
    11.6784  11.7396  11.8658  12.2037  12.7220  12.7454  12.7999  12.9803
    13.0145  13.0831  13.1908  13.2310  13.3144  13.4140  13.4600  13.5429
    13.5739  13.7030  13.7482  13.9074  14.6922  14.7354  14.7614  14.8412
    14.8804  14.9649  14.9867  15.0711  15.1152  15.1495  15.2206  15.2586
    15.3668  15.4102  15.5090  15.5674  15.5922  15.6470  15.6957  15.7589
    15.8844  15.9970  16.0820  16.1546  16.2018  16.2537  16.3044  16.4340
    16.4565  16.5215  16.5403  16.5904  16.6267  16.6620  16.7019  16.7726
    16.8355  16.9165  17.1342  17.2142  17.3500  17.4215  17.4673  17.5300
    17.6183  17.7224  17.8236  17.8998  17.9327  18.1260  18.3704  18.4074
    18.4475  18.5063  18.6373  18.6741  18.7100  18.8118

     occupation numbers 
     1.0000   1.0000   1.0000   1.0000   1.0000   1.0000   1.0000   1.0000
     1.0000   1.0000   1.0000   1.0000   1.0000   1.0000   1.0000   1.0000
     1.0000   1.0000   1.0000   1.0000   1.0000   1.0000   1.0000   1.0000
     1.0000   1.0000   1.0000   1.0000   1.0000   1.0000   1.0000   1.0000
     1.0000   1.0000   1.0000   1.0000   1.0000   1.0000   1.0000   1.0000
     1.0000   1.0000   1.0000   1.0000   1.0000   1.0000   1.0000   1.0000
     1.0000   1.0000   1.0000   1.0000   1.0000   1.0000   1.0000   1.0000
     1.0000   1.0000   1.0000   1.0000   1.0000   1.0000   1.0000   1.0000
     1.0000   1.0000   1.0000   1.0000   1.0000   1.0000   1.0000   1.0000
     1.0000   1.0000   1.0000   1.0000   1.0000   1.0000   1.0000   1.0000
     1.0000   1.0000   1.0000   1.0000   1.0000   1.0000   1.0000   1.0000
     1.0000   1.0000   1.0000   1.0000   1.0000   1.0000   1.0000   1.0000
     1.0000   1.0000   1.0000   1.0000   1.0000   1.0000   1.0000   1.0000
     1.0000   1.0000   1.0000   1.0000   1.0000   1.0000   1.0000   1.0000
     1.0000   1.0000   1.0000   1.0000   1.0000   1.0000   1.0000   1.0000
     1.0000   1.0000   1.0000   1.0000   1.0000   1.0000   1.0000   1.0000
     1.0000   1.0000   1.0000   1.0000   1.0000   1.0000   1.0000   1.0000
     1.0000   1.0000   1.0000   1.0000   1.0000   1.0000   1.0000   1.0000
     1.0000   1.0000   1.0000   1.0000   1.0000   1.0000   1.0000   1.0000
     1.0000   1.0000   1.0000   1.0000   1.0000   1.0000   1.0000   1.0000
     1.0000   1.0000   1.0000   1.0000   1.0000   1.0000   1.0000   1.0000
     1.0000   1.0000   1.0000   1.0000   1.0000   1.0000   1.0000   1.0000
     1.0000   1.0000   1.0000   1.0000   1.0000   1.0000   1.0000   1.0000
     1.0000   1.0000   1.0000   1.0000   1.0000   1.0000   1.0000   1.0000
     1.0000   1.0000   1.0000   1.0000   1.0000   1.0000   1.0000   1.0000
     1.0000   1.0000   1.0000   1.0000   1.0000   1.0000   1.0000   1.0000
     1.0000   1.0000   1.0000   1.0000   1.0000   1.0000   1.0000   1.0000
     1.0000   1.0000   1.0000   1.0000   1.0000   1.0000   1.0000   1.0000
     1.0000   1.0000   1.0000   1.0000   1.0000   1.0000   1.0000   1.0000
     1.0000   1.0000   1.0000   1.0000   1.0000   1.0000   1.0000   1.0000
     1.0000   1.0000   1.0000   1.0000   1.0000   1.0000   1.0000   1.0000
     1.0000   1.0000   1.0000   1.0000   1.0000   1.0000   1.0000   1.0000
     1.0000   1.0000   1.0000   1.0000   1.0000   1.0000   1.0000   1.0000
     1.0000   1.0000   1.0000   1.0000   1.0000   1.0000   1.0000   1.0000
     1.0000   1.0000   1.0000   1.0000   1.0000   1.0000   1.0000   1.0000
     1.0000   1.0000   1.0000   1.0000   1.0000   1.0000   1.0000   1.0000
     1.0000   1.0000   1.0000   1.0000   1.0000   1.0000   1.0000   1.0000
     1.0000   1.0000   1.0000   1.0000   1.0000   1.0000   1.0000   1.0000
     1.0000   1.0000   1.0000   1.0000   1.0000   1.0000   1.0000   1.0000
     1.0000   1.0000   1.0000   1.0000   1.0000   1.0000   1.0000   1.0000
     1.0000   1.0000   1.0000   1.0000   1.0000   1.0000   1.0000   1.0000
     1.0000   1.0000   1.0000   1.0000   1.0000   1.0000   1.0000   1.0000
     1.0000   1.0000   1.0000   1.0000   1.0000   1.0000   1.0000   1.0000
     1.0000   1.0000   1.0000   1.0000   1.0000   1.0000   1.0000   1.0000
     1.0000   1.0000   1.0000   1.0000   1.0000   1.0000   1.0000   1.0000
     1.0000   1.0000   1.0000   1.0000   1.0000   1.0000   1.0000   1.0000
     1.0000   1.0000   1.0000   1.0000   1.0000   1.0000   1.0000   1.0000
     1.0000   1.0000   1.0000   1.0000   1.0000   1.0000   1.0000   1.0000
     1.0000   1.0000   1.0000   1.0000   1.0000   1.0000   1.0000   1.0000
     1.0000   1.0000   1.0000   1.0000   1.0000   1.0000   0.0000   0.0000
     0.0000   0.0000   0.0000   0.0000   0.0000   0.0000   0.0000   0.0000
     0.0000   0.0000   0.0000   0.0000   0.0000   0.0000   0.0000   0.0000
     0.0000   0.0000   0.0000   0.0000   0.0000   0.0000   0.0000   0.0000
     0.0000   0.0000   0.0000   0.0000   0.0000   0.0000   0.0000   0.0000
     0.0000   0.0000   0.0000   0.0000   0.0000   0.0000   0.0000   0.0000
     0.0000   0.0000   0.0000   0.0000   0.0000   0.0000   0.0000   0.0000
     0.0000   0.0000   0.0000   0.0000   0.0000   0.0000   0.0000   0.0000
     0.0000   0.0000   0.0000   0.0000   0.0000   0.0000   0.0000   0.0000
     0.0000   0.0000   0.0000   0.0000   0.0000   0.0000   0.0000   0.0000
     0.0000   0.0000   0.0000   0.0000   0.0000   0.0000

          k =-0.0000 0.2885 0.2375 ( 44751 PWs)   bands (ev):

  -115.4380-115.4366-115.4315-115.4215-115.4194-115.4193-115.4159-115.4154
  -115.4151-115.4150-115.4150-115.4148-115.4147-115.4129-115.4123-115.4117
  -115.4077-115.4071-115.4069-115.4057-115.4042-115.3961 -69.7990 -69.7971
   -69.7944 -69.7936 -69.7920 -69.7909 -69.7904 -69.7873 -69.7839 -69.7838
   -69.7830 -69.7821 -69.7793 -69.7788 -69.7787 -69.7782 -69.7781 -69.7776
   -69.7769 -69.7768 -69.7765 -69.7759 -69.7753 -69.7749 -69.7748 -69.7739
   -69.7734 -69.7719 -69.7712 -69.7712 -69.7710 -69.7710 -69.7707 -69.7705
   -69.7703 -69.7703 -69.7700 -69.7695 -69.7693 -69.7690 -69.7689 -69.7681
   -69.7680 -69.7680 -69.7670 -69.7669 -69.7666 -69.7660 -69.7655 -69.7649
   -69.7644 -69.7643 -69.7631 -69.7627 -69.7627 -69.7620 -69.7611 -69.7592
   -69.7588 -69.7587 -69.7573 -69.7570 -69.7558 -69.7544 -69.7528 -69.7478
   -64.8570 -64.8544 -64.8517 -64.8514 -64.8433 -64.8401 -64.8371 -64.8324
   -64.8259 -64.8244 -64.8172 -64.8148 -64.8044 -64.7932 -31.8534 -31.8504
   -31.8473 -31.8469 -31.8441 -31.8441 -31.8433 -31.8411 -31.8407 -31.8386
   -31.8382 -31.8360 -31.8356 -31.8342 -31.8306 -31.8296 -31.8278 -31.8268
   -31.8261 -31.8241 -31.8237 -31.8232 -31.8199 -31.8177 -31.8173 -31.8161
   -31.8146 -31.8115 -31.8098 -31.8087 -31.8079 -31.8074 -31.8021 -31.8018
   -31.7995 -31.7987 -31.7942 -31.7890 -31.7869 -31.7849 -31.7789 -31.7778
   -10.0463  -9.8786  -9.7696  -9.7126  -9.6511  -9.6225  -9.5838  -9.5668
    -9.5068  -9.4811  -9.4712  -9.4306  -9.4052  -9.3896  -9.3638  -9.3452
    -9.3266  -9.3018  -9.2893  -9.2618  -9.2464  -9.2293  -9.2029  -9.1927
    -9.1788  -9.1666  -9.1530  -9.1263  -9.1094  -9.1047  -9.0956  -9.0750
    -8.9992  -8.9820  -8.9545  -8.9178   1.7450   1.7703   1.7860   1.7995
     1.8166   1.8357   1.8481   1.8608   1.8882   1.8945   1.9134   1.9357
     1.9540   1.9802   2.0055   2.0233   2.0463   2.0590   2.0735   2.0939
     2.1034   2.1084   2.1380   2.1575   2.1760   2.1849   2.1936   2.2012
     2.2154   2.2367   2.2387   2.2557   2.2649   2.2760   2.2836   2.2957
     2.3066   2.3276   2.3331   2.3475   2.3528   2.3671   2.3748   2.3866
     2.3923   2.3978   2.4119   2.4266   2.4416   2.4585   2.4714   2.4824
     2.5012   2.5104   2.5286   2.5350   2.5573   2.5668   2.5777   2.6040
     2.6260   2.6455   2.6594   2.6956   2.7190   2.7300   2.7480   2.7731
     2.7906   2.8018   2.8155   2.8279   2.8360   2.8467   2.8719   2.8808
     2.9014   2.9266   2.9331   2.9398   2.9601   2.9796   3.0085   3.0125
     3.0353   3.0415   3.0762   3.0949   3.1066   3.1148   3.1361   3.1558
     3.1790   3.1856   3.1990   3.2080   3.2297   3.2370   3.2486   3.2629
     3.2698   3.2873   3.2957   3.3014   3.3079   3.3273   3.3294   3.3564
     3.3705   3.3983   3.4713   3.5390   3.5704   3.6146   3.6382   3.6840
     3.7443   3.7610   3.7842   3.8101   3.8261   3.8651   3.8777   3.9201
     3.9306   3.9865   4.0294   4.0850   4.1159   4.1528   4.1739   4.2492
     4.2841   4.3305   4.3669   4.4540   4.4955   4.5500   4.5748   4.6036
     4.6481   4.6659   4.6944   4.7316   4.7499   4.7992   4.8799   4.8942
     4.9508   5.0426   5.0706   5.1861   5.2371   5.2722   5.2910   5.3196
     5.3493   5.3890   5.4342   5.4620   5.5087   5.5428   5.5669   5.6085
     5.6390   5.6570   5.6778   5.7120   5.7211   5.7357   5.7871   5.8435
     5.8545   5.8908   5.9286   5.9396   5.9748   5.9893   6.0424   6.0709
     6.1016   6.1467   6.1550   6.2057   6.2245   6.2379   6.2690   6.2948
     6.3209   6.3701   6.3841   6.3970   6.4210   6.4586   6.4737   6.4949
     6.5353   6.5592   6.5841   6.5983   6.6131   6.6311   6.6443   6.6671
     6.6966   6.7115   6.7412   6.7735   6.8079   6.8452   6.8762   6.9128
     6.9466   6.9623   7.0679   7.1073   7.2293   7.2348   9.6918  10.9669
    11.4006  11.8865  12.1311  12.2265  12.4239  12.4597  12.6784  12.8807
    13.0242  13.0955  13.2055  13.2783  13.3985  13.4938  13.6184  13.6901
    13.8839  13.9102  13.9762  14.1478  14.5861  14.6335  14.6949  14.7487
    14.8038  14.8938  14.9352  14.9723  15.0315  15.0501  15.0876  15.1229
    15.1919  15.2537  15.5160  15.5976  15.6669  15.7278  15.8436  15.9095
    15.9561  16.0804  16.0990  16.1639  16.2227  16.2603  16.3249  16.3469
    16.4476  16.4779  16.5498  16.6114  16.6416  16.7091  16.7671  16.8427
    16.9034  16.9632  17.0702  17.2120  17.3174  17.4014  17.4571  17.5610
    17.6256  17.6800  17.7670  17.8267  17.8898  18.0069  18.1123  18.2784
    18.3736  18.4651  18.5486  18.6609  18.7664  18.8165

     occupation numbers 
     1.0000   1.0000   1.0000   1.0000   1.0000   1.0000   1.0000   1.0000
     1.0000   1.0000   1.0000   1.0000   1.0000   1.0000   1.0000   1.0000
     1.0000   1.0000   1.0000   1.0000   1.0000   1.0000   1.0000   1.0000
     1.0000   1.0000   1.0000   1.0000   1.0000   1.0000   1.0000   1.0000
     1.0000   1.0000   1.0000   1.0000   1.0000   1.0000   1.0000   1.0000
     1.0000   1.0000   1.0000   1.0000   1.0000   1.0000   1.0000   1.0000
     1.0000   1.0000   1.0000   1.0000   1.0000   1.0000   1.0000   1.0000
     1.0000   1.0000   1.0000   1.0000   1.0000   1.0000   1.0000   1.0000
     1.0000   1.0000   1.0000   1.0000   1.0000   1.0000   1.0000   1.0000
     1.0000   1.0000   1.0000   1.0000   1.0000   1.0000   1.0000   1.0000
     1.0000   1.0000   1.0000   1.0000   1.0000   1.0000   1.0000   1.0000
     1.0000   1.0000   1.0000   1.0000   1.0000   1.0000   1.0000   1.0000
     1.0000   1.0000   1.0000   1.0000   1.0000   1.0000   1.0000   1.0000
     1.0000   1.0000   1.0000   1.0000   1.0000   1.0000   1.0000   1.0000
     1.0000   1.0000   1.0000   1.0000   1.0000   1.0000   1.0000   1.0000
     1.0000   1.0000   1.0000   1.0000   1.0000   1.0000   1.0000   1.0000
     1.0000   1.0000   1.0000   1.0000   1.0000   1.0000   1.0000   1.0000
     1.0000   1.0000   1.0000   1.0000   1.0000   1.0000   1.0000   1.0000
     1.0000   1.0000   1.0000   1.0000   1.0000   1.0000   1.0000   1.0000
     1.0000   1.0000   1.0000   1.0000   1.0000   1.0000   1.0000   1.0000
     1.0000   1.0000   1.0000   1.0000   1.0000   1.0000   1.0000   1.0000
     1.0000   1.0000   1.0000   1.0000   1.0000   1.0000   1.0000   1.0000
     1.0000   1.0000   1.0000   1.0000   1.0000   1.0000   1.0000   1.0000
     1.0000   1.0000   1.0000   1.0000   1.0000   1.0000   1.0000   1.0000
     1.0000   1.0000   1.0000   1.0000   1.0000   1.0000   1.0000   1.0000
     1.0000   1.0000   1.0000   1.0000   1.0000   1.0000   1.0000   1.0000
     1.0000   1.0000   1.0000   1.0000   1.0000   1.0000   1.0000   1.0000
     1.0000   1.0000   1.0000   1.0000   1.0000   1.0000   1.0000   1.0000
     1.0000   1.0000   1.0000   1.0000   1.0000   1.0000   1.0000   1.0000
     1.0000   1.0000   1.0000   1.0000   1.0000   1.0000   1.0000   1.0000
     1.0000   1.0000   1.0000   1.0000   1.0000   1.0000   1.0000   1.0000
     1.0000   1.0000   1.0000   1.0000   1.0000   1.0000   1.0000   1.0000
     1.0000   1.0000   1.0000   1.0000   1.0000   1.0000   1.0000   1.0000
     1.0000   1.0000   1.0000   1.0000   1.0000   1.0000   1.0000   1.0000
     1.0000   1.0000   1.0000   1.0000   1.0000   1.0000   1.0000   1.0000
     1.0000   1.0000   1.0000   1.0000   1.0000   1.0000   1.0000   1.0000
     1.0000   1.0000   1.0000   1.0000   1.0000   1.0000   1.0000   1.0000
     1.0000   1.0000   1.0000   1.0000   1.0000   1.0000   1.0000   1.0000
     1.0000   1.0000   1.0000   1.0000   1.0000   1.0000   1.0000   1.0000
     1.0000   1.0000   1.0000   1.0000   1.0000   1.0000   1.0000   1.0000
     1.0000   1.0000   1.0000   1.0000   1.0000   1.0000   1.0000   1.0000
     1.0000   1.0000   1.0000   1.0000   1.0000   1.0000   1.0000   1.0000
     1.0000   1.0000   1.0000   1.0000   1.0000   1.0000   1.0000   1.0000
     1.0000   1.0000   1.0000   1.0000   1.0000   1.0000   1.0000   1.0000
     1.0000   1.0000   1.0000   1.0000   1.0000   1.0000   1.0000   1.0000
     1.0000   1.0000   1.0000   1.0000   1.0000   1.0000   1.0000   1.0000
     1.0000   1.0000   1.0000   1.0000   1.0000   1.0000   1.0000   1.0000
     1.0000   1.0000   1.0000   1.0000   1.0000   1.0000   1.0000   1.0000
     1.0000   1.0000   1.0000   1.0000   1.0000   1.0000   1.0000   1.0000
     1.0000   1.0000   1.0000   1.0000   1.0000   1.0000   0.0000   0.0000
     0.0000   0.0000   0.0000   0.0000   0.0000   0.0000   0.0000   0.0000
     0.0000   0.0000   0.0000   0.0000   0.0000   0.0000   0.0000   0.0000
     0.0000   0.0000   0.0000   0.0000   0.0000   0.0000   0.0000   0.0000
     0.0000   0.0000   0.0000   0.0000   0.0000   0.0000   0.0000   0.0000
     0.0000   0.0000   0.0000   0.0000   0.0000   0.0000   0.0000   0.0000
     0.0000   0.0000   0.0000   0.0000   0.0000   0.0000   0.0000   0.0000
     0.0000   0.0000   0.0000   0.0000   0.0000   0.0000   0.0000   0.0000
     0.0000   0.0000   0.0000   0.0000   0.0000   0.0000   0.0000   0.0000
     0.0000   0.0000   0.0000   0.0000   0.0000   0.0000   0.0000   0.0000
     0.0000   0.0000   0.0000   0.0000   0.0000   0.0000

          k =-0.0003 0.2887-0.4752 ( 44766 PWs)   bands (ev):

  -115.4380-115.4366-115.4315-115.4215-115.4194-115.4193-115.4159-115.4154
  -115.4151-115.4150-115.4150-115.4148-115.4147-115.4129-115.4123-115.4117
  -115.4077-115.4071-115.4069-115.4057-115.4042-115.3961 -69.7990 -69.7971
   -69.7944 -69.7936 -69.7920 -69.7909 -69.7904 -69.7873 -69.7839 -69.7838
   -69.7830 -69.7821 -69.7793 -69.7788 -69.7787 -69.7782 -69.7781 -69.7776
   -69.7769 -69.7768 -69.7765 -69.7759 -69.7753 -69.7749 -69.7748 -69.7739
   -69.7734 -69.7719 -69.7712 -69.7712 -69.7710 -69.7710 -69.7707 -69.7705
   -69.7703 -69.7703 -69.7700 -69.7695 -69.7693 -69.7690 -69.7689 -69.7681
   -69.7680 -69.7680 -69.7670 -69.7669 -69.7666 -69.7660 -69.7655 -69.7649
   -69.7644 -69.7643 -69.7631 -69.7627 -69.7627 -69.7620 -69.7611 -69.7592
   -69.7588 -69.7587 -69.7573 -69.7570 -69.7558 -69.7544 -69.7528 -69.7478
   -64.8570 -64.8544 -64.8517 -64.8514 -64.8433 -64.8401 -64.8371 -64.8324
   -64.8259 -64.8244 -64.8172 -64.8148 -64.8044 -64.7932 -31.8534 -31.8503
   -31.8474 -31.8470 -31.8441 -31.8438 -31.8434 -31.8411 -31.8408 -31.8386
   -31.8385 -31.8360 -31.8356 -31.8342 -31.8305 -31.8296 -31.8277 -31.8268
   -31.8261 -31.8241 -31.8237 -31.8232 -31.8199 -31.8177 -31.8173 -31.8161
   -31.8146 -31.8115 -31.8098 -31.8087 -31.8080 -31.8073 -31.8020 -31.8018
   -31.7995 -31.7987 -31.7942 -31.7890 -31.7869 -31.7849 -31.7789 -31.7778
    -9.9956  -9.9457  -9.7581  -9.7145  -9.6679  -9.6344  -9.5635  -9.5472
    -9.5255  -9.5024  -9.4616  -9.4270  -9.4073  -9.3803  -9.3574  -9.3461
    -9.3279  -9.3018  -9.2788  -9.2560  -9.2456  -9.2196  -9.2059  -9.1930
    -9.1750  -9.1629  -9.1522  -9.1220  -9.1153  -9.1039  -9.0963  -9.0795
    -9.0042  -8.9834  -8.9594  -8.9212   1.7658   1.7790   1.8125   1.8167
     1.8398   1.8512   1.8701   1.8844   1.8937   1.9177   1.9287   1.9493
     1.9638   1.9819   2.0195   2.0423   2.0561   2.0655   2.0841   2.0880
     2.1099   2.1163   2.1352   2.1501   2.1574   2.1659   2.1763   2.2055
     2.2122   2.2200   2.2346   2.2424   2.2560   2.2705   2.2814   2.2872
     2.3006   2.3179   2.3317   2.3399   2.3546   2.3702   2.3802   2.3828
     2.3985   2.4063   2.4151   2.4310   2.4361   2.4525   2.4592   2.4737
     2.4842   2.4929   2.5008   2.5083   2.5253   2.5437   2.5640   2.5814
     2.5911   2.6155   2.6342   2.6706   2.6778   2.7082   2.7286   2.7538
     2.7774   2.7860   2.8088   2.8129   2.8317   2.8420   2.8498   2.8717
     2.8848   2.9112   2.9234   2.9362   2.9641   2.9728   3.0050   3.0136
     3.0331   3.0555   3.0826   3.0949   3.1066   3.1221   3.1325   3.1588
     3.1695   3.1861   3.1976   3.2170   3.2251   3.2403   3.2484   3.2622
     3.2783   3.2840   3.3017   3.3050   3.3129   3.3232   3.3325   3.3556
     3.3689   3.3960   3.5440   3.5500   3.6235   3.6375   3.6716   3.6992
     3.7582   3.7665   3.7999   3.8175   3.8541   3.8786   3.9132   3.9409
     3.9881   4.0160   4.0400   4.0953   4.1227   4.1744   4.1958   4.2286
     4.3275   4.3613   4.3925   4.4288   4.4579   4.4960   4.5184   4.5632
     4.5731   4.6289   4.6710   4.7309   4.8756   4.8967   4.9940   5.0254
     5.0804   5.0954   5.1341   5.1727   5.2078   5.2611   5.3051   5.3386
     5.3714   5.4126   5.4369   5.4563   5.4968   5.5152   5.5303   5.5581
     5.5831   5.6160   5.6232   5.6533   5.6775   5.7099   5.7354   5.7519
     5.7783   5.7991   5.8523   5.8997   5.9402   5.9693   6.0333   6.0403
     6.0678   6.1046   6.1629   6.1973   6.2272   6.2637   6.2826   6.3206
     6.3474   6.3687   6.3914   6.4180   6.4318   6.4562   6.4873   6.5098
     6.5218   6.5771   6.5888   6.6013   6.6250   6.6457   6.6612   6.6953
     6.7291   6.7571   6.7760   6.7866   6.8173   6.8448   6.8785   6.9098
     6.9235   6.9440   7.1309   7.1348   7.1853   7.2165  10.2232  10.3095
    11.6210  11.7030  12.0733  12.1125  12.3594  12.4575  12.7823  12.8742
    12.9166  13.1062  13.1499  13.1852  13.2795  13.4255  14.1075  14.1853
    14.2536  14.2721  14.3126  14.3592  14.3994  14.4496  14.5079  14.5500
    14.5561  14.6642  14.7049  14.7618  14.8812  14.9285  15.0692  15.0815
    15.1177  15.1451  15.6894  15.7180  15.7634  15.8477  15.9235  15.9685
    16.0013  16.0496  16.1445  16.1568  16.1934  16.2136  16.2756  16.3603
    16.4227  16.4694  16.5490  16.6045  16.6760  16.7112  16.8143  16.8865
    17.0244  17.0903  17.1542  17.1815  17.2189  17.3284  17.4073  17.4696
    17.5775  17.6997  17.7312  17.7926  17.8577  17.9435  18.1270  18.1990
    18.2731  18.3706  18.5281  18.5830  18.7571  18.8031

     occupation numbers 
     1.0000   1.0000   1.0000   1.0000   1.0000   1.0000   1.0000   1.0000
     1.0000   1.0000   1.0000   1.0000   1.0000   1.0000   1.0000   1.0000
     1.0000   1.0000   1.0000   1.0000   1.0000   1.0000   1.0000   1.0000
     1.0000   1.0000   1.0000   1.0000   1.0000   1.0000   1.0000   1.0000
     1.0000   1.0000   1.0000   1.0000   1.0000   1.0000   1.0000   1.0000
     1.0000   1.0000   1.0000   1.0000   1.0000   1.0000   1.0000   1.0000
     1.0000   1.0000   1.0000   1.0000   1.0000   1.0000   1.0000   1.0000
     1.0000   1.0000   1.0000   1.0000   1.0000   1.0000   1.0000   1.0000
     1.0000   1.0000   1.0000   1.0000   1.0000   1.0000   1.0000   1.0000
     1.0000   1.0000   1.0000   1.0000   1.0000   1.0000   1.0000   1.0000
     1.0000   1.0000   1.0000   1.0000   1.0000   1.0000   1.0000   1.0000
     1.0000   1.0000   1.0000   1.0000   1.0000   1.0000   1.0000   1.0000
     1.0000   1.0000   1.0000   1.0000   1.0000   1.0000   1.0000   1.0000
     1.0000   1.0000   1.0000   1.0000   1.0000   1.0000   1.0000   1.0000
     1.0000   1.0000   1.0000   1.0000   1.0000   1.0000   1.0000   1.0000
     1.0000   1.0000   1.0000   1.0000   1.0000   1.0000   1.0000   1.0000
     1.0000   1.0000   1.0000   1.0000   1.0000   1.0000   1.0000   1.0000
     1.0000   1.0000   1.0000   1.0000   1.0000   1.0000   1.0000   1.0000
     1.0000   1.0000   1.0000   1.0000   1.0000   1.0000   1.0000   1.0000
     1.0000   1.0000   1.0000   1.0000   1.0000   1.0000   1.0000   1.0000
     1.0000   1.0000   1.0000   1.0000   1.0000   1.0000   1.0000   1.0000
[...]
     2.1007   2.1189   2.1410   2.1448   2.1534   2.1666   2.1836   2.2121
     2.2162   2.2246   2.2418   2.2501   2.2640   2.2695   2.2820   2.2960
     2.3033   2.3168   2.3272   2.3393   2.3474   2.3550   2.3685   2.3819
     2.3896   2.4047   2.4125   2.4217   2.4301   2.4447   2.4580   2.4651
     2.4759   2.4844   2.4997   2.5155   2.5419   2.5518   2.5697   2.5845
     2.6203   2.6424   2.6603   2.6742   2.6969   2.7162   2.7246   2.7508
     2.7659   2.7734   2.7999   2.8172   2.8417   2.8643   2.8818   2.8879
     2.9205   2.9282   2.9338   2.9441   2.9744   2.9809   3.0096   3.0333
     3.0469   3.0599   3.0707   3.1040   3.1080   3.1237   3.1397   3.1426
     3.1679   3.1758   3.1849   3.1979   3.2226   3.2327   3.2472   3.2565
     3.2648   3.2774   3.2865   3.2979   3.3085   3.3224   3.3423   3.3500
     3.3737   3.3881   3.4521   3.5224   3.5579   3.5887   3.6252   3.6538
     3.6794   3.7358   3.7511   3.7746   3.8203   3.8278   3.8716   3.9029
     3.9527   3.9868   4.0384   4.0809   4.1048   4.1695   4.2238   4.2530
     4.3506   4.3814   4.4238   4.5125   4.5386   4.6110   4.6555   4.6893
     4.7684   4.7963   4.8287   4.8665   4.8890   4.9308   4.9656   5.0275
     5.0566   5.0846   5.1067   5.1475   5.1687   5.2126   5.2312   5.2481
     5.3209   5.3724   5.3950   5.4881   5.5373   5.5579   5.5939   5.6164
     5.6358   5.6762   5.6885   5.7339   5.7555   5.8089   5.8212   5.8414
     5.8675   5.9095   5.9316   5.9522   5.9816   6.0081   6.0289   6.0751
     6.1026   6.1238   6.1475   6.1732   6.1898   6.2036   6.2329   6.2517
     6.2857   6.2986   6.3049   6.3518   6.3726   6.3947   6.4167   6.4299
     6.4581   6.4838   6.5059   6.5231   6.5523   6.5743   6.6040   6.6204
     6.6364   6.6698   6.7325   6.7499   6.7713   6.7964   6.8268   6.8713
     6.9176   6.9337   7.1188   7.1364   7.1758   7.2226  10.4201  10.5219
    11.4652  11.5700  11.8712  12.0359  12.4875  12.6363  12.8897  12.9801
    13.3349  13.5460  13.5875  13.6526  13.6975  13.7547  13.7902  13.8812
    13.9133  13.9637  14.0144  14.0956  14.1196  14.3174  14.3526  14.3932
    14.4331  14.4676  14.4977  14.5328  14.9905  15.0171  15.0414  15.0942
    15.1215  15.1988  15.4266  15.6105  15.6764  15.7601  15.8080  15.9823
    16.0473  16.0747  16.1070  16.1165  16.1980  16.2465  16.3388  16.4054
    16.5237  16.5466  16.5915  16.7046  16.7914  16.8763  16.9276  17.1054
    17.2409  17.3035  17.3529  17.4495  17.4718  17.5341  17.5650  17.5933
    17.7414  17.7957  17.8431  17.9415  18.1041  18.2470  18.3025  18.3324
    18.4200  18.4670  18.5041  18.5829  18.6838  18.7707

     occupation numbers 
     1.0000   1.0000   1.0000   1.0000   1.0000   1.0000   1.0000   1.0000
     1.0000   1.0000   1.0000   1.0000   1.0000   1.0000   1.0000   1.0000
     1.0000   1.0000   1.0000   1.0000   1.0000   1.0000   1.0000   1.0000
     1.0000   1.0000   1.0000   1.0000   1.0000   1.0000   1.0000   1.0000
     1.0000   1.0000   1.0000   1.0000   1.0000   1.0000   1.0000   1.0000
     1.0000   1.0000   1.0000   1.0000   1.0000   1.0000   1.0000   1.0000
     1.0000   1.0000   1.0000   1.0000   1.0000   1.0000   1.0000   1.0000
     1.0000   1.0000   1.0000   1.0000   1.0000   1.0000   1.0000   1.0000
     1.0000   1.0000   1.0000   1.0000   1.0000   1.0000   1.0000   1.0000
     1.0000   1.0000   1.0000   1.0000   1.0000   1.0000   1.0000   1.0000
     1.0000   1.0000   1.0000   1.0000   1.0000   1.0000   1.0000   1.0000
     1.0000   1.0000   1.0000   1.0000   1.0000   1.0000   1.0000   1.0000
     1.0000   1.0000   1.0000   1.0000   1.0000   1.0000   1.0000   1.0000
     1.0000   1.0000   1.0000   1.0000   1.0000   1.0000   1.0000   1.0000
     1.0000   1.0000   1.0000   1.0000   1.0000   1.0000   1.0000   1.0000
     1.0000   1.0000   1.0000   1.0000   1.0000   1.0000   1.0000   1.0000
     1.0000   1.0000   1.0000   1.0000   1.0000   1.0000   1.0000   1.0000
     1.0000   1.0000   1.0000   1.0000   1.0000   1.0000   1.0000   1.0000
     1.0000   1.0000   1.0000   1.0000   1.0000   1.0000   1.0000   1.0000
     1.0000   1.0000   1.0000   1.0000   1.0000   1.0000   1.0000   1.0000
     1.0000   1.0000   1.0000   1.0000   1.0000   1.0000   1.0000   1.0000
     1.0000   1.0000   1.0000   1.0000   1.0000   1.0000   1.0000   1.0000
     1.0000   1.0000   1.0000   1.0000   1.0000   1.0000   1.0000   1.0000
     1.0000   1.0000   1.0000   1.0000   1.0000   1.0000   1.0000   1.0000
     1.0000   1.0000   1.0000   1.0000   1.0000   1.0000   1.0000   1.0000
     1.0000   1.0000   1.0000   1.0000   1.0000   1.0000   1.0000   1.0000
     1.0000   1.0000   1.0000   1.0000   1.0000   1.0000   1.0000   1.0000
     1.0000   1.0000   1.0000   1.0000   1.0000   1.0000   1.0000   1.0000
     1.0000   1.0000   1.0000   1.0000   1.0000   1.0000   1.0000   1.0000
     1.0000   1.0000   1.0000   1.0000   1.0000   1.0000   1.0000   1.0000
     1.0000   1.0000   1.0000   1.0000   1.0000   1.0000   1.0000   1.0000
     1.0000   1.0000   1.0000   1.0000   1.0000   1.0000   1.0000   1.0000
     1.0000   1.0000   1.0000   1.0000   1.0000   1.0000   1.0000   1.0000
     1.0000   1.0000   1.0000   1.0000   1.0000   1.0000   1.0000   1.0000
     1.0000   1.0000   1.0000   1.0000   1.0000   1.0000   1.0000   1.0000
     1.0000   1.0000   1.0000   1.0000   1.0000   1.0000   1.0000   1.0000
     1.0000   1.0000   1.0000   1.0000   1.0000   1.0000   1.0000   1.0000
     1.0000   1.0000   1.0000   1.0000   1.0000   1.0000   1.0000   1.0000
     1.0000   1.0000   1.0000   1.0000   1.0000   1.0000   1.0000   1.0000
     1.0000   1.0000   1.0000   1.0000   1.0000   1.0000   1.0000   1.0000
     1.0000   1.0000   1.0000   1.0000   1.0000   1.0000   1.0000   1.0000
     1.0000   1.0000   1.0000   1.0000   1.0000   1.0000   1.0000   1.0000
     1.0000   1.0000   1.0000   1.0000   1.0000   1.0000   1.0000   1.0000
     1.0000   1.0000   1.0000   1.0000   1.0000   1.0000   1.0000   1.0000
     1.0000   1.0000   1.0000   1.0000   1.0000   1.0000   1.0000   1.0000
     1.0000   1.0000   1.0000   1.0000   1.0000   1.0000   1.0000   1.0000
     1.0000   1.0000   1.0000   1.0000   1.0000   1.0000   1.0000   1.0000
     1.0000   1.0000   1.0000   1.0000   1.0000   1.0000   1.0000   1.0000
     1.0000   1.0000   1.0000   1.0000   1.0000   1.0000   1.0000   1.0000
     1.0000   1.0000   1.0000   1.0000   1.0000   1.0000   0.0000   0.0000
     0.0000   0.0000   0.0000   0.0000   0.0000   0.0000   0.0000   0.0000
     0.0000   0.0000   0.0000   0.0000   0.0000   0.0000   0.0000   0.0000
     0.0000   0.0000   0.0000   0.0000   0.0000   0.0000   0.0000   0.0000
     0.0000   0.0000   0.0000   0.0000   0.0000   0.0000   0.0000   0.0000
     0.0000   0.0000   0.0000   0.0000   0.0000   0.0000   0.0000   0.0000
     0.0000   0.0000   0.0000   0.0000   0.0000   0.0000   0.0000   0.0000
     0.0000   0.0000   0.0000   0.0000   0.0000   0.0000   0.0000   0.0000
     0.0000   0.0000   0.0000   0.0000   0.0000   0.0000   0.0000   0.0000
     0.0000   0.0000   0.0000   0.0000   0.0000   0.0000   0.0000   0.0000
     0.0000   0.0000   0.0000   0.0000   0.0000   0.0000

          k =-0.4998-0.8654-0.4751 ( 44746 PWs)   bands (ev):

  -115.4380-115.4366-115.4315-115.4215-115.4194-115.4193-115.4159-115.4154
  -115.4151-115.4150-115.4150-115.4148-115.4147-115.4129-115.4123-115.4117
  -115.4077-115.4071-115.4069-115.4057-115.4042-115.3961 -69.7990 -69.7971
   -69.7944 -69.7936 -69.7920 -69.7909 -69.7904 -69.7873 -69.7839 -69.7838
   -69.7830 -69.7821 -69.7793 -69.7788 -69.7787 -69.7782 -69.7781 -69.7776
   -69.7769 -69.7768 -69.7765 -69.7759 -69.7753 -69.7749 -69.7748 -69.7739
   -69.7734 -69.7719 -69.7712 -69.7712 -69.7710 -69.7710 -69.7707 -69.7705
   -69.7703 -69.7703 -69.7700 -69.7695 -69.7693 -69.7690 -69.7689 -69.7682
   -69.7680 -69.7680 -69.7670 -69.7669 -69.7666 -69.7660 -69.7655 -69.7649
   -69.7644 -69.7643 -69.7631 -69.7627 -69.7627 -69.7620 -69.7611 -69.7592
   -69.7588 -69.7587 -69.7573 -69.7570 -69.7558 -69.7544 -69.7528 -69.7478
   -64.8570 -64.8544 -64.8517 -64.8514 -64.8433 -64.8401 -64.8371 -64.8324
   -64.8259 -64.8244 -64.8172 -64.8148 -64.8044 -64.7932 -31.8534 -31.8503
   -31.8474 -31.8469 -31.8441 -31.8438 -31.8434 -31.8411 -31.8408 -31.8386
   -31.8385 -31.8360 -31.8356 -31.8342 -31.8305 -31.8296 -31.8277 -31.8268
   -31.8262 -31.8241 -31.8237 -31.8232 -31.8199 -31.8177 -31.8173 -31.8161
   -31.8145 -31.8115 -31.8098 -31.8087 -31.8081 -31.8072 -31.8020 -31.8018
   -31.7996 -31.7987 -31.7942 -31.7890 -31.7868 -31.7849 -31.7789 -31.7778
    -9.9413  -9.8948  -9.8405  -9.7794  -9.6725  -9.6522  -9.6174  -9.5731
    -9.4824  -9.4710  -9.4401  -9.4046  -9.3884  -9.3564  -9.3447  -9.3355
    -9.3173  -9.2913  -9.2846  -9.2503  -9.2437  -9.2312  -9.2198  -9.2123
    -9.2009  -9.1719  -9.1508  -9.1298  -9.1230  -9.0978  -9.0822  -9.0709
    -8.9958  -8.9920  -8.9565  -8.9205   1.7967   1.8147   1.8268   1.8347
     1.8513   1.8625   1.8716   1.8972   1.9117   1.9189   1.9362   1.9629
     1.9836   1.9982   2.0255   2.0381   2.0473   2.0536   2.0683   2.0907
     2.1148   2.1202   2.1266   2.1340   2.1509   2.1595   2.1759   2.1968
     2.2066   2.2178   2.2326   2.2428   2.2580   2.2674   2.2732   2.2841
     2.2984   2.3135   2.3233   2.3309   2.3381   2.3588   2.3696   2.3775
     2.3894   2.3934   2.4054   2.4161   2.4247   2.4434   2.4489   2.4507
     2.4643   2.4832   2.4944   2.5047   2.5239   2.5404   2.5582   2.5663
     2.5722   2.5904   2.6286   2.6456   2.6638   2.6845   2.7161   2.7267
     2.7464   2.7620   2.7944   2.8123   2.8235   2.8632   2.8745   2.8872
     2.9038   2.9200   2.9226   2.9514   2.9596   2.9806   2.9990   3.0310
     3.0405   3.0657   3.0771   3.0974   3.1172   3.1316   3.1399   3.1490
     3.1715   3.1851   3.1859   3.2010   3.2218   3.2311   3.2403   3.2522
     3.2731   3.2793   3.2910   3.2982   3.3119   3.3277   3.3344   3.3529
     3.3753   3.3825   3.4892   3.5608   3.5830   3.6064   3.6573   3.6693
     3.7276   3.7748   3.7852   3.8010   3.8422   3.8605   3.8891   3.9188
     3.9967   4.0323   4.0618   4.0838   4.1008   4.2102   4.2234   4.2514
     4.3190   4.3665   4.3826   4.4293   4.4940   4.5268   4.6465   4.6757
     4.8114   4.8220   4.8494   4.8809   4.9146   4.9511   5.0142   5.0298
     5.0663   5.1191   5.2164   5.2523   5.2715   5.2975   5.3440   5.3503
     5.4004   5.4152   5.4329   5.4513   5.4840   5.4966   5.5115   5.5386
     5.5696   5.5931   5.6310   5.6603   5.6924   5.7470   5.7552   5.7914
     5.8093   5.8726   5.8852   5.9235   5.9461   5.9758   6.0219   6.0463
     6.0677   6.0839   6.1029   6.1536   6.1739   6.2109   6.2263   6.2641
     6.2757   6.2956   6.3315   6.3367   6.3588   6.4013   6.4266   6.4429
     6.4456   6.4917   6.5140   6.5495   6.5578   6.5600   6.5911   6.6163
     6.6619   6.6925   6.7447   6.8008   6.8199   6.8498   6.8705   6.9091
     6.9591   6.9938   7.0737   7.1318   7.1567   7.2089  10.7394  10.8758
    10.9328  11.0853  12.0674  12.1027  12.1988  12.3292  13.2849  13.3221
    13.4733  13.5251  13.5485  13.5731  13.6486  13.7895  13.8289  13.8548
    13.9606  13.9965  14.0727  14.1335  14.1892  14.2067  14.4639  14.4849
    14.5817  14.6139  14.6637  14.6916  14.7461  14.7793  14.7977  14.8288
    14.8646  14.8805  15.6758  15.7476  15.8023  15.8962  15.9393  15.9485
    15.9686  16.0625  16.1212  16.1731  16.2344  16.2877  16.3183  16.3666
    16.4018  16.5418  16.5604  16.6109  16.8010  16.8853  16.9132  17.0616
    17.1675  17.3031  17.3798  17.4674  17.5278  17.5532  17.5852  17.6056
    17.6436  17.6824  17.9284  17.9671  18.0487  18.0915  18.1566  18.4115
    18.4517  18.4642  18.6481  18.6912  18.7205  18.8217

     occupation numbers 
     1.0000   1.0000   1.0000   1.0000   1.0000   1.0000   1.0000   1.0000
     1.0000   1.0000   1.0000   1.0000   1.0000   1.0000   1.0000   1.0000
     1.0000   1.0000   1.0000   1.0000   1.0000   1.0000   1.0000   1.0000
     1.0000   1.0000   1.0000   1.0000   1.0000   1.0000   1.0000   1.0000
     1.0000   1.0000   1.0000   1.0000   1.0000   1.0000   1.0000   1.0000
     1.0000   1.0000   1.0000   1.0000   1.0000   1.0000   1.0000   1.0000
     1.0000   1.0000   1.0000   1.0000   1.0000   1.0000   1.0000   1.0000
     1.0000   1.0000   1.0000   1.0000   1.0000   1.0000   1.0000   1.0000
     1.0000   1.0000   1.0000   1.0000   1.0000   1.0000   1.0000   1.0000
     1.0000   1.0000   1.0000   1.0000   1.0000   1.0000   1.0000   1.0000
     1.0000   1.0000   1.0000   1.0000   1.0000   1.0000   1.0000   1.0000
     1.0000   1.0000   1.0000   1.0000   1.0000   1.0000   1.0000   1.0000
     1.0000   1.0000   1.0000   1.0000   1.0000   1.0000   1.0000   1.0000
     1.0000   1.0000   1.0000   1.0000   1.0000   1.0000   1.0000   1.0000
     1.0000   1.0000   1.0000   1.0000   1.0000   1.0000   1.0000   1.0000
     1.0000   1.0000   1.0000   1.0000   1.0000   1.0000   1.0000   1.0000
     1.0000   1.0000   1.0000   1.0000   1.0000   1.0000   1.0000   1.0000
     1.0000   1.0000   1.0000   1.0000   1.0000   1.0000   1.0000   1.0000
     1.0000   1.0000   1.0000   1.0000   1.0000   1.0000   1.0000   1.0000
     1.0000   1.0000   1.0000   1.0000   1.0000   1.0000   1.0000   1.0000
     1.0000   1.0000   1.0000   1.0000   1.0000   1.0000   1.0000   1.0000
     1.0000   1.0000   1.0000   1.0000   1.0000   1.0000   1.0000   1.0000
     1.0000   1.0000   1.0000   1.0000   1.0000   1.0000   1.0000   1.0000
     1.0000   1.0000   1.0000   1.0000   1.0000   1.0000   1.0000   1.0000
     1.0000   1.0000   1.0000   1.0000   1.0000   1.0000   1.0000   1.0000
     1.0000   1.0000   1.0000   1.0000   1.0000   1.0000   1.0000   1.0000
     1.0000   1.0000   1.0000   1.0000   1.0000   1.0000   1.0000   1.0000
     1.0000   1.0000   1.0000   1.0000   1.0000   1.0000   1.0000   1.0000
     1.0000   1.0000   1.0000   1.0000   1.0000   1.0000   1.0000   1.0000
     1.0000   1.0000   1.0000   1.0000   1.0000   1.0000   1.0000   1.0000
     1.0000   1.0000   1.0000   1.0000   1.0000   1.0000   1.0000   1.0000
     1.0000   1.0000   1.0000   1.0000   1.0000   1.0000   1.0000   1.0000
     1.0000   1.0000   1.0000   1.0000   1.0000   1.0000   1.0000   1.0000
     1.0000   1.0000   1.0000   1.0000   1.0000   1.0000   1.0000   1.0000
     1.0000   1.0000   1.0000   1.0000   1.0000   1.0000   1.0000   1.0000
     1.0000   1.0000   1.0000   1.0000   1.0000   1.0000   1.0000   1.0000
     1.0000   1.0000   1.0000   1.0000   1.0000   1.0000   1.0000   1.0000
     1.0000   1.0000   1.0000   1.0000   1.0000   1.0000   1.0000   1.0000
     1.0000   1.0000   1.0000   1.0000   1.0000   1.0000   1.0000   1.0000
     1.0000   1.0000   1.0000   1.0000   1.0000   1.0000   1.0000   1.0000
     1.0000   1.0000   1.0000   1.0000   1.0000   1.0000   1.0000   1.0000
     1.0000   1.0000   1.0000   1.0000   1.0000   1.0000   1.0000   1.0000
     1.0000   1.0000   1.0000   1.0000   1.0000   1.0000   1.0000   1.0000
     1.0000   1.0000   1.0000   1.0000   1.0000   1.0000   1.0000   1.0000
     1.0000   1.0000   1.0000   1.0000   1.0000   1.0000   1.0000   1.0000
     1.0000   1.0000   1.0000   1.0000   1.0000   1.0000   1.0000   1.0000
     1.0000   1.0000   1.0000   1.0000   1.0000   1.0000   1.0000   1.0000
     1.0000   1.0000   1.0000   1.0000   1.0000   1.0000   1.0000   1.0000
     1.0000   1.0000   1.0000   1.0000   1.0000   1.0000   1.0000   1.0000
     1.0000   1.0000   1.0000   1.0000   1.0000   1.0000   0.0000   0.0000
     0.0000   0.0000   0.0000   0.0000   0.0000   0.0000   0.0000   0.0000
     0.0000   0.0000   0.0000   0.0000   0.0000   0.0000   0.0000   0.0000
     0.0000   0.0000   0.0000   0.0000   0.0000   0.0000   0.0000   0.0000
     0.0000   0.0000   0.0000   0.0000   0.0000   0.0000   0.0000   0.0000
     0.0000   0.0000   0.0000   0.0000   0.0000   0.0000   0.0000   0.0000
     0.0000   0.0000   0.0000   0.0000   0.0000   0.0000   0.0000   0.0000
     0.0000   0.0000   0.0000   0.0000   0.0000   0.0000   0.0000   0.0000
     0.0000   0.0000   0.0000   0.0000   0.0000   0.0000   0.0000   0.0000
     0.0000   0.0000   0.0000   0.0000   0.0000   0.0000   0.0000   0.0000
     0.0000   0.0000   0.0000   0.0000   0.0000   0.0000

     the Fermi energy is     8.4230 ev

!    total energy              =  -13064.12982128 Ry
     Harris-Foulkes estimate   =  -13064.12982129 Ry
     estimated scf accuracy    <          4.7E-09 Ry

     The total energy is the sum of the following terms:

     one-electron contribution =  -10867.79937450 Ry
     hartree contribution      =    5706.53252093 Ry
     xc contribution           =   -1415.60724305 Ry
     ewald contribution        =   -6487.25572467 Ry
     smearing contrib. (-TS)   =       0.00000000 Ry

     convergence has been achieved in  12 iterations

     Writing output data file ZnO.save/
 
     init_run     :     13.55s CPU     14.26s WALL (       1 calls)
     electrons    :    663.10s CPU    677.31s WALL (       1 calls)

     Called by init_run:
     wfcinit      :     11.31s CPU     11.65s WALL (       1 calls)
     wfcinit:atom :      0.09s CPU      0.11s WALL (       5 calls)
     wfcinit:wfcr :     10.83s CPU     11.10s WALL (       5 calls)
     potinit      :      1.02s CPU      1.08s WALL (       1 calls)
     hinit0       :      0.78s CPU      0.96s WALL (       1 calls)

     Called by electrons:
     c_bands      :    612.53s CPU    625.41s WALL (      12 calls)
     sum_band     :     43.67s CPU     44.49s WALL (      12 calls)
     v_of_rho     :      5.54s CPU      5.83s WALL (      13 calls)
     v_h          :      0.15s CPU      0.20s WALL (      13 calls)
     v_xc         :      5.39s CPU      5.63s WALL (      13 calls)
     newd         :      1.20s CPU      1.28s WALL (      13 calls)
     mix_rho      :      0.33s CPU      0.43s WALL (      12 calls)

     Called by c_bands:
     init_us_2    :      4.20s CPU      4.22s WALL (     125 calls)
     cegterg      :    566.09s CPU    578.70s WALL (      60 calls)

     Called by sum_band:
     sum_band:bec :      0.25s CPU      0.25s WALL (      60 calls)
     addusdens    :      1.05s CPU      1.13s WALL (      12 calls)

     Called by *egterg:
     h_psi        :    187.29s CPU    190.45s WALL (     269 calls)
     s_psi        :     49.26s CPU     49.27s WALL (     269 calls)
     g_psi        :      0.77s CPU      0.77s WALL (     204 calls)
     cdiaghg      :    213.89s CPU    219.83s WALL (     264 calls)
     cegterg:over :     53.69s CPU     55.06s WALL (     204 calls)
     cegterg:upda :     34.40s CPU     34.86s WALL (     204 calls)
     cegterg:last :     19.06s CPU     19.11s WALL (      60 calls)
     cdiaghg:chol :     10.16s CPU     10.23s WALL (     264 calls)
     cdiaghg:inve :      3.23s CPU      3.23s WALL (     264 calls)
     cdiaghg:para :     51.42s CPU     56.26s WALL (     528 calls)

     Called by h_psi:
     h_psi:pot    :    185.72s CPU    187.84s WALL (     269 calls)
     h_psi:calbec :     50.47s CPU     51.88s WALL (     269 calls)
     vloc_psi     :     85.86s CPU     86.42s WALL (     269 calls)
     add_vuspsi   :     49.38s CPU     49.53s WALL (     269 calls)

     General routines
     calbec       :     70.32s CPU     72.28s WALL (     329 calls)
     fft          :      1.24s CPU      1.71s WALL (     167 calls)
     ffts         :      0.05s CPU      0.06s WALL (      25 calls)
     fftw         :     96.29s CPU     96.93s WALL (  169892 calls)
     interpolate  :      0.14s CPU      0.19s WALL (      13 calls)
 
     Parallel routines
     fft_scatt_xy :     15.74s CPU     15.83s WALL (  170084 calls)
     fft_scatt_yz :     27.63s CPU     28.27s WALL (  170084 calls)
 
     PWSCF        :  11m18.20s CPU  11m44.54s WALL

 
   This run was terminated on:   1:38:22  15Jul2022            

=------------------------------------------------------------------------------=
   JOB DONE.
=------------------------------------------------------------------------------=
