
     Program PWSCF v.6.4.1 starts on 22Nov2021 at 15: 7: 4 

     This program is part of the open-source Quantum ESPRESSO suite
     for quantum simulation of materials; please cite
         "P. Giannozzi et al., J. Phys.:Condens. Matter 21 395502 (2009);
         "P. Giannozzi et al., J. Phys.:Condens. Matter 29 465901 (2017);
          URL http://www.quantum-espresso.org", 
     in publications or presentations arising from this work. More details at
     http://www.quantum-espresso.org/quote

     Parallel version (MPI), running on   128 processors

     MPI processes distributed on     2 nodes
     R & G space division:  proc/nbgrp/npool/nimage =     128
     Waiting for input...
     Reading input from standard input

     Current dimensions of program PWSCF are:
     Max number of different atomic species (ntypx) = 10
     Max number of k-points (npk) =  40000
     Max angular momentum in pseudopotentials (lmaxx) =  3

     Atomic positions and unit cell read from directory:
     ./temp/ZnO.save/
 

     Subspace diagonalization in iterative solution of the eigenvalue problem:
     one sub-group per band group will be used
     scalapack distributed-memory algorithm (size of sub-group:  8*  8 procs)

 
     Parallelization info
     --------------------
     sticks:   dense  smooth     PW     G-vecs:    dense   smooth      PW
     Min          90      43     12                 8480     2819     418
     Max          91      44     13                 8491     2826     423
     Sum       11641    5599   1561              1086275   361327   53823
 


     bravais-lattice index     =            0
     lattice parameter (alat)  =      18.3770  a.u.
     unit-cell volume          =    5753.7501 (a.u.)^3
     number of atoms/cell      =           72
     number of atomic types    =            3
     number of electrons       =       876.00
     number of Kohn-Sham states=          438
     kinetic-energy cutoff     =      60.0000  Ry
     charge density cutoff     =     500.0000  Ry
     Exchange-correlation      = SLA  PW   PSX  PSC ( 1  4 10  8 0 0)
     Using LIBXC version       =    4   3   4

     celldm(1)=  18.377017  celldm(2)=   0.000000  celldm(3)=   0.000000
     celldm(4)=   0.000000  celldm(5)=   0.000000  celldm(6)=   0.000000

     crystal axes: (cart. coord. in units of alat)
               a(1) = (   1.000000   0.000006   0.000017 )  
               a(2) = (  -0.499993   0.865992  -0.000022 )  
               a(3) = (   0.000019  -0.000017   1.070560 )  

     reciprocal axes: (cart. coord. in units 2 pi/alat)
               b(1) = (  0.999997  0.577363 -0.000009 )  
               b(2) = ( -0.000007  1.154742  0.000018 )  
               b(3) = ( -0.000016  0.000014  0.934091 )  


     PseudoPot. # 1 for Zn read from file:
     ./GBRV_PBEsol/zn_pbesol_v1.uspp.F.UPF
     MD5 check sum: 7d8615e52efe7c1e2b1899de8658bae2
     Pseudo is Ultrasoft, Zval = 20.0
     Generated by new atomic code, or converted to UPF format
     Using radial grid of  943 points,  6 beta functions with: 
                l(1) =   0
                l(2) =   0
                l(3) =   1
                l(4) =   1
                l(5) =   2
                l(6) =   2
     Q(r) pseudized with  8 coefficients,  rinner =    1.100   1.100   1.100
                                                       1.100   1.100

     PseudoPot. # 2 for O  read from file:
     ./GBRV_PBEsol/o_pbesol_v1.2.uspp.F.UPF
     MD5 check sum: 501638753501ef6325af9037351f7734
     Pseudo is Ultrasoft + core correction, Zval =  6.0
     Generated by new atomic code, or converted to UPF format
     Using radial grid of  737 points,  5 beta functions with: 
                l(1) =   0
                l(2) =   0
                l(3) =   1
                l(4) =   1
                l(5) =   2
     Q(r) pseudized with  8 coefficients,  rinner =    0.900   0.900   0.900
                                                       0.900   0.900

     PseudoPot. # 3 for Mg read from file:
     ./GBRV_PBEsol/mg_pbesol_v1.4.uspp.F.UPF
     MD5 check sum: 4059f37963cf5867752dbf5ab2400678
     Pseudo is Ultrasoft, Zval = 10.0
     Generated by new atomic code, or converted to UPF format
     Using radial grid of  821 points,  7 beta functions with: 
                l(1) =   0
                l(2) =   0
                l(3) =   0
                l(4) =   1
                l(5) =   1
                l(6) =   2
                l(7) =   2
     Q(r) pseudized with  8 coefficients,  rinner =    1.200   1.200   1.200
                                                       1.200   1.200

     atomic species   valence    mass     pseudopotential
        Zn            20.00    65.38000     Zn( 1.00)
        O              6.00    15.99900     O ( 1.00)
        Mg            10.00    24.30500     Mg( 1.00)

     No symmetry found


                                    s                        frac. trans.

      isym =  1     identity                                     

 cryst.   s( 1) = (     1          0          0      )
                  (     0          1          0      )
                  (     0          0          1      )

 cart.    s( 1) = (  1.0000000  0.0000000 -0.0000000 )
                  ( -0.0000000  1.0000000  0.0000000 )
                  ( -0.0000000  0.0000000  1.0000000 )


   Cartesian axes

     site n.     atom                  positions (alat units)
         1           Zn  tau(   1) = (   0.1666491   0.0974608   0.2072048  )
         2           Zn  tau(   2) = (   0.4998442   0.0953410   0.2067889  )
         3           Zn  tau(   3) = (   0.8332371   0.0974524   0.2054953  )
         4           Zn  tau(   4) = (   0.0000018   0.3848122   0.2063760  )
         5           Zn  tau(   5) = (   0.3333066   0.3847916   0.2078695  )
         6           Zn  tau(   6) = (   0.6668753   0.3848922   0.2076995  )
         7           Zn  tau(   7) = (  -0.1647476   0.6732879   0.2069021  )
         8           Zn  tau(   8) = (   0.1647496   0.6732754   0.2070733  )
         9           Zn  tau(   9) = (   0.5002200   0.6726778   0.2048026  )
        10           Zn  tau(  10) = (   0.1658366   0.0950780   0.7429128  )
        11           Zn  tau(  11) = (   0.4994346   0.0978245   0.7429016  )
        12           Zn  tau(  12) = (   0.3340182   0.3847515   0.7435285  )
        13           Zn  tau(  13) = (   0.6659849   0.3846961   0.7436104  )
        14           Zn  tau(  14) = (  -0.1688630   0.6739442   0.7423156  )
        15           Zn  tau(  15) = (   0.1701776   0.6739903   0.7426654  )
        16           Zn  tau(  16) = (  -0.0007678   0.1929063   0.4746708  )
        17           Zn  tau(  17) = (   0.3335803   0.1926652   0.4758344  )
        18           Zn  tau(  18) = (   0.6666697   0.1924446   0.4748831  )
        19           Zn  tau(  19) = (  -0.1665033   0.4809066   0.4753806  )
        20           Zn  tau(  20) = (   0.1666960   0.4810504   0.4753029  )
        21           Zn  tau(  21) = (   0.5000950   0.4815959   0.4746074  )
        22           Zn  tau(  22) = (  -0.3339211   0.7689481   0.4731215  )
        23           Zn  tau(  23) = (   0.3340874   0.7697167   0.4723383  )
        24           Zn  tau(  24) = (   0.0005463   0.1921750   1.0088352  )
        25           Zn  tau(  25) = (   0.3328378   0.1929988   1.0108610  )
        26           Zn  tau(  26) = (   0.6660693   0.1932896   1.0101955  )
        27           Zn  tau(  27) = (  -0.1667853   0.4815434   1.0097970  )
        28           Zn  tau(  28) = (   0.1670066   0.4814088   1.0103035  )
        29           Zn  tau(  29) = (   0.5001929   0.4811441   1.0104652  )
        30           Zn  tau(  30) = (   0.0000899   0.7686137   1.0086547  )
        31           Mg  tau(  31) = (   0.8325173   0.0950950   0.7431035  )
        32           Mg  tau(  32) = (   0.0011532   0.3854963   0.7437695  )
        33           Mg  tau(  33) = (   0.4998399   0.6730019   0.7422040  )
        34           Mg  tau(  34) = (   0.0000895   0.7698364   0.4769841  )
        35           Mg  tau(  35) = (  -0.3315091   0.7699199   1.0115531  )
        36           Mg  tau(  36) = (   0.3318634   0.7685327   1.0115595  )
        37           O   tau(  37) = (   0.1666074   0.0962372   0.0036958  )
        38           O   tau(  38) = (   0.4996972   0.0955623   0.0031460  )
        39           O   tau(  39) = (   0.8331144   0.0958822   0.0016960  )
        40           O   tau(  40) = (   0.0000226   0.3846330   0.0024430  )
        41           O   tau(  41) = (   0.3335675   0.3851730   0.0042368  )
        42           O   tau(  42) = (   0.6667641   0.3852115   0.0041243  )
        43           O   tau(  43) = (  -0.1659122   0.6734412   0.0036109  )
        44           O   tau(  44) = (   0.1658182   0.6732711   0.0038618  )
        45           O   tau(  45) = (   0.5004311   0.6744600   0.0011154  )
        46           O   tau(  46) = (   0.1663162   0.0957376   0.5384949  )
        47           O   tau(  47) = (   0.5000743   0.0962794   0.5392075  )
        48           O   tau(  48) = (   0.8331294   0.0957030   0.5395979  )
        49           O   tau(  49) = (   0.0001419   0.3850056   0.5404674  )
        50           O   tau(  50) = (   0.3335267   0.3850788   0.5394106  )
        51           O   tau(  51) = (   0.6666123   0.3848838   0.5391975  )
        52           O   tau(  52) = (  -0.1670259   0.6737184   0.5384710  )
        53           O   tau(  53) = (   0.1673948   0.6738957   0.5384997  )
        54           O   tau(  54) = (   0.4998556   0.6738030   0.5391348  )
        55           O   tau(  55) = (  -0.0003617   0.1926958   0.2711216  )
        56           O   tau(  56) = (   0.3336493   0.1924037   0.2717807  )
        57           O   tau(  57) = (   0.6664476   0.1922660   0.2710287  )
        58           O   tau(  58) = (  -0.1663140   0.4809395   0.2714722  )
        59           O   tau(  59) = (   0.1664029   0.4808771   0.2714527  )
        60           O   tau(  60) = (   0.5000799   0.4812380   0.2711567  )
        61           O   tau(  61) = (  -0.3330793   0.7696409   0.2690293  )
        62           O   tau(  62) = (   0.0000121   0.7700356   0.2738244  )
        63           O   tau(  63) = (   0.3332762   0.7698546   0.2683632  )
        64           O   tau(  64) = (  -0.0010397   0.1926895   0.8050478  )
        65           O   tau(  65) = (   0.3322758   0.1922217   0.8070355  )
        66           O   tau(  66) = (   0.6667712   0.1922820   0.8065809  )
        67           O   tau(  67) = (  -0.1664183   0.4809978   0.8061554  )
        68           O   tau(  68) = (   0.1673604   0.4815198   0.8067345  )
        69           O   tau(  69) = (   0.5001069   0.4812857   0.8066321  )
        70           O   tau(  70) = (  -0.3345114   0.7692914   0.8083814  )
        71           O   tau(  71) = (   0.0003701   0.7694425   0.8043104  )
        72           O   tau(  72) = (   0.3351400   0.7701145   0.8084777  )

   Crystallographic axes

     site n.     atom                  positions (cryst. coord.)
         1           Zn  tau(   1) = (  0.2229170  0.1125447  0.1935468  )
         2           Zn  tau(   2) = (  0.5548872  0.1100946  0.1931528  )
         3           Zn  tau(   3) = (  0.8894980  0.1125304  0.1919392  )
         4           Zn  tau(   4) = (  0.2221765  0.4443624  0.1927795  )
         5           Zn  tau(   5) = (  0.5554683  0.4443364  0.1941691  )
         6           Zn  tau(   6) = (  0.8890939  0.4444504  0.1940049  )
         7           Zn  tau(   7) = (  0.2239829  0.7774785  0.1932777  )
         8           Zn  tau(   8) = (  0.5534718  0.7774619  0.1934323  )
         9           Zn  tau(   9) = (  0.8885960  0.7767695  0.1913058  )
        10           Zn  tau(  10) = (  0.2207243  0.1098028  0.6939468  )
        11           Zn  tau(  11) = (  0.5559068  0.1129720  0.6939310  )
        12           Zn  tau(  12) = (  0.5561521  0.4442997  0.6945234  )
        13           Zn  tau(  13) = (  0.8880857  0.4442336  0.6945944  )
        14           Zn  tau(  14) = (  0.2202419  0.7782460  0.6934028  )
        15           Zn  tau(  15) = (  0.5593079  0.7782970  0.6937240  )
        16           Zn  tau(  16) = (  0.1106052  0.2227655  0.4433885  )
        17           Zn  tau(  17) = (  0.4448130  0.2224849  0.4444700  )
        18           Zn  tau(  18) = (  0.7777739  0.2222279  0.4435759  )
        19           Zn  tau(  19) = (  0.1111510  0.5553326  0.4440584  )
        20           Zn  tau(  20) = (  0.4444322  0.5554964  0.4439804  )
        21           Zn  tau(  21) = (  0.7781450  0.5561241  0.4433253  )
        22           Zn  tau(  22) = (  0.1100384  0.8879473  0.4419551  )
        23           Zn  tau(  23) = (  0.7784885  0.8888303  0.4412126  )
        24           Zn  tau(  24) = (  0.1114924  0.2219306  0.9423466  )
        25           Zn  tau(  25) = (  0.4442584  0.2228796  0.9442335  )
        26           Zn  tau(  26) = (  0.7776568  0.2232132  0.9436064  )
        27           Zn  tau(  27) = (  0.1112321  0.5560775  0.9432519  )
        28           Zn  tau(  28) = (  0.4449452  0.5559198  0.9437196  )
        29           Zn  tau(  29) = (  0.7779775  0.5556119  0.9438652  )
        30           Zn  tau(  30) = (  0.4438506  0.8875684  0.9421863  )
        31           Mg  tau(  31) = (  0.8874124  0.1098178  0.6941141  )
        32           Mg  tau(  32) = (  0.2237182  0.4451620  0.6947539  )
        33           Mg  tau(  33) = (  0.8883985  0.7771534  0.6932877  )
        34           Mg  tau(  34) = (  0.4445607  0.8889708  0.4455577  )
        35           Mg  tau(  35) = (  0.1130068  0.8890791  0.9448991  )
        36           Mg  tau(  36) = (  0.7755762  0.8874727  0.9448943  )
        37           O   tau(  37) = (  0.2221706  0.1111280  0.0034509  )
        38           O   tau(  38) = (  0.5548697  0.1103465  0.0029319  )
        39           O   tau(  39) = (  0.8884705  0.1107136  0.0015721  )
        40           O   tau(  40) = (  0.2220955  0.4441519  0.0022876  )
        41           O   tau(  41) = (  0.5559512  0.4447733  0.0039577  )
        42           O   tau(  42) = (  0.8891689  0.4448155  0.0038472  )
        43           O   tau(  43) = (  0.2229086  0.7776520  0.0033853  )
        44           O   tau(  44) = (  0.5545397  0.7774533  0.0036143  )
        45           O   tau(  45) = (  0.8898378  0.7788238  0.0010435  )
        46           O   tau(  46) = (  0.2215864  0.1105607  0.5030019  )
        47           O   tau(  47) = (  0.5556562  0.1111842  0.5036621  )
        48           O   tau(  48) = (  0.8883774  0.1105163  0.5040214  )
        49           O   tau(  49) = (  0.2224254  0.4445918  0.5048513  )
        50           O   tau(  50) = (  0.5558514  0.4446740  0.5038587  )
        51           O   tau(  51) = (  0.8888232  0.4444466  0.5036542  )
        52           O   tau(  52) = (  0.2219504  0.7779816  0.5029933  )
        53           O   tau(  53) = (  0.5564722  0.7781841  0.5030147  )
        54           O   tau(  54) = (  0.8888785  0.7780748  0.5036025  )
        55           O   tau(  55) = (  0.1108915  0.2225188  0.2532550  )
        56           O   tau(  56) = (  0.4447327  0.2221792  0.2538653  )
        57           O   tau(  57) = (  0.7774504  0.2220180  0.2531574  )
        58           O   tau(  58) = (  0.1113611  0.5553670  0.2535894  )
        59           O   tau(  59) = (  0.4440408  0.5552926  0.2535657  )
        60           O   tau(  60) = (  0.7779251  0.5557072  0.2532838  )
        61           O   tau(  61) = (  0.1112819  0.8887436  0.2513143  )
        62           O   tau(  62) = (  0.4446000  0.8891972  0.2557880  )
        63           O   tau(  63) = (  0.7777586  0.8889859  0.2506814  )
        64           O   tau(  64) = (  0.1102052  0.2225210  0.7519907  )
        65           O   tau(  65) = (  0.4432494  0.2219786  0.7538419  )
        66           O   tau(  66) = (  0.7777786  0.2220460  0.7534118  )
        67           O   tau(  67) = (  0.1112859  0.5554439  0.7530321  )
        68           O   tau(  68) = (  0.4453648  0.5560444  0.7535676  )
        69           O   tau(  69) = (  0.7779750  0.5557718  0.7534666  )
        70           O   tau(  70) = (  0.1096434  0.8883496  0.7551182  )
        71           O   tau(  71) = (  0.4446111  0.8885218  0.7513101  )
        72           O   tau(  72) = (  0.7797678  0.8892957  0.7551974  )

     number of k points=    80
                       cart. coord. in units 2pi/alat
        k(    1) = (   0.0000000   0.0000000   0.0000000), wk =   0.0156250
        k(    2) = (  -0.0000023   0.0000021   0.1334416), wk =   0.0156250
        k(    3) = (  -0.0000046   0.0000041   0.2668831), wk =   0.0156250
        k(    4) = (  -0.0000070   0.0000062   0.4003247), wk =   0.0156250
        k(    5) = (  -0.0000093   0.0000082   0.5337663), wk =   0.0156250
        k(    6) = (  -0.0000116   0.0000103   0.6672078), wk =   0.0156250
        k(    7) = (  -0.0000139   0.0000124   0.8006494), wk =   0.0156250
        k(    8) = (  -0.0000163   0.0000144   0.9340910), wk =   0.0156250
        k(    9) = (  -0.0000017   0.2886855   0.0000045), wk =   0.0312500
        k(   10) = (  -0.0000040   0.2886875   0.1334460), wk =   0.0312500
        k(   11) = (  -0.0000063   0.2886896   0.2668876), wk =   0.0312500
        k(   12) = (  -0.0000086   0.2886916   0.4003292), wk =   0.0312500
        k(   13) = (  -0.0000110   0.2886937   0.5337707), wk =   0.0312500
        k(   14) = (  -0.0000133   0.2886958   0.6672123), wk =   0.0312500
        k(   15) = (  -0.0000156   0.2886978   0.8006539), wk =   0.0312500
        k(   16) = (  -0.0000179   0.2886999   0.9340954), wk =   0.0312500
        k(   17) = (   0.0000034  -0.5773709  -0.0000089), wk =   0.0156250
        k(   18) = (   0.0000010  -0.5773689   0.1334326), wk =   0.0156250
        k(   19) = (  -0.0000013  -0.5773668   0.2668742), wk =   0.0156250
        k(   20) = (  -0.0000036  -0.5773648   0.4003158), wk =   0.0156250
        k(   21) = (  -0.0000059  -0.5773627   0.5337573), wk =   0.0156250
        k(   22) = (  -0.0000083  -0.5773606   0.6671989), wk =   0.0156250
        k(   23) = (  -0.0000106  -0.5773586   0.8006405), wk =   0.0156250
        k(   24) = (  -0.0000129  -0.5773565   0.9340820), wk =   0.0156250
        k(   25) = (   0.2499992   0.1443408  -0.0000022), wk =   0.0312500
        k(   26) = (   0.2499968   0.1443429   0.1334394), wk =   0.0312500
        k(   27) = (   0.2499945   0.1443450   0.2668810), wk =   0.0312500
        k(   28) = (   0.2499922   0.1443470   0.4003225), wk =   0.0312500
        k(   29) = (   0.2499899   0.1443491   0.5337641), wk =   0.0312500
        k(   30) = (   0.2499875   0.1443511   0.6672057), wk =   0.0312500
        k(   31) = (   0.2499852   0.1443532   0.8006472), wk =   0.0312500
        k(   32) = (   0.2499829   0.1443553   0.9340888), wk =   0.0312500
        k(   33) = (   0.2499975   0.4330263   0.0000023), wk =   0.0312500
        k(   34) = (   0.2499952   0.4330284   0.1334439), wk =   0.0312500
        k(   35) = (   0.2499928   0.4330304   0.2668855), wk =   0.0312500
        k(   36) = (   0.2499905   0.4330325   0.4003270), wk =   0.0312500
        k(   37) = (   0.2499882   0.4330345   0.5337686), wk =   0.0312500
        k(   38) = (   0.2499859   0.4330366   0.6672101), wk =   0.0312500
        k(   39) = (   0.2499835   0.4330387   0.8006517), wk =   0.0312500
        k(   40) = (   0.2499812   0.4330407   0.9340933), wk =   0.0312500
        k(   41) = (   0.2500025  -0.4330301  -0.0000111), wk =   0.0312500
        k(   42) = (   0.2500002  -0.4330280   0.1334305), wk =   0.0312500
        k(   43) = (   0.2499979  -0.4330260   0.2668720), wk =   0.0312500
        k(   44) = (   0.2499955  -0.4330239   0.4003136), wk =   0.0312500
        k(   45) = (   0.2499932  -0.4330219   0.5337552), wk =   0.0312500
        k(   46) = (   0.2499909  -0.4330198   0.6671967), wk =   0.0312500
        k(   47) = (   0.2499886  -0.4330177   0.8006383), wk =   0.0312500
        k(   48) = (   0.2499862  -0.4330157   0.9340799), wk =   0.0312500
        k(   49) = (   0.2500008  -0.1443446  -0.0000066), wk =   0.0312500
        k(   50) = (   0.2499985  -0.1443426   0.1334349), wk =   0.0312500
        k(   51) = (   0.2499962  -0.1443405   0.2668765), wk =   0.0312500
        k(   52) = (   0.2499939  -0.1443385   0.4003181), wk =   0.0312500
        k(   53) = (   0.2499915  -0.1443364   0.5337596), wk =   0.0312500
        k(   54) = (   0.2499892  -0.1443343   0.6672012), wk =   0.0312500
        k(   55) = (   0.2499869  -0.1443323   0.8006428), wk =   0.0312500
        k(   56) = (   0.2499846  -0.1443302   0.9340843), wk =   0.0312500
        k(   57) = (  -0.4999983  -0.2886817   0.0000043), wk =   0.0156250
        k(   58) = (  -0.5000006  -0.2886796   0.1334459), wk =   0.0156250
        k(   59) = (  -0.5000030  -0.2886776   0.2668874), wk =   0.0156250
        k(   60) = (  -0.5000053  -0.2886755   0.4003290), wk =   0.0156250
        k(   61) = (  -0.5000076  -0.2886734   0.5337706), wk =   0.0156250
        k(   62) = (  -0.5000099  -0.2886714   0.6672121), wk =   0.0156250
        k(   63) = (  -0.5000123  -0.2886693   0.8006537), wk =   0.0156250
        k(   64) = (  -0.5000146  -0.2886673   0.9340953), wk =   0.0156250
        k(   65) = (  -0.5000000   0.0000038   0.0000088), wk =   0.0312500
        k(   66) = (  -0.5000023   0.0000059   0.1334503), wk =   0.0312500
        k(   67) = (  -0.5000046   0.0000079   0.2668919), wk =   0.0312500
        k(   68) = (  -0.5000070   0.0000100   0.4003335), wk =   0.0312500
        k(   69) = (  -0.5000093   0.0000120   0.5337750), wk =   0.0312500
        k(   70) = (  -0.5000116   0.0000141   0.6672166), wk =   0.0312500
        k(   71) = (  -0.5000139   0.0000162   0.8006582), wk =   0.0312500
        k(   72) = (  -0.5000163   0.0000182   0.9340997), wk =   0.0312500
        k(   73) = (  -0.4999950  -0.8660526  -0.0000046), wk =   0.0156250
        k(   74) = (  -0.4999973  -0.8660505   0.1334369), wk =   0.0156250
        k(   75) = (  -0.4999996  -0.8660485   0.2668785), wk =   0.0156250
        k(   76) = (  -0.5000019  -0.8660464   0.4003201), wk =   0.0156250
        k(   77) = (  -0.5000043  -0.8660444   0.5337616), wk =   0.0156250
        k(   78) = (  -0.5000066  -0.8660423   0.6672032), wk =   0.0156250
        k(   79) = (  -0.5000089  -0.8660403   0.8006448), wk =   0.0156250
        k(   80) = (  -0.5000112  -0.8660382   0.9340863), wk =   0.0156250

                       cryst. coord.
        k(    1) = (   0.0000000   0.0000000   0.0000000), wk =   0.0156250
        k(    2) = (  -0.0000000   0.0000000   0.1428571), wk =   0.0156250
        k(    3) = (  -0.0000000   0.0000000   0.2857143), wk =   0.0156250
        k(    4) = (  -0.0000000  -0.0000000   0.4285714), wk =   0.0156250
        k(    5) = (  -0.0000000   0.0000000   0.5714286), wk =   0.0156250
        k(    6) = (  -0.0000000   0.0000000   0.7142857), wk =   0.0156250
        k(    7) = (  -0.0000000  -0.0000000   0.8571429), wk =   0.0156250
        k(    8) = (  -0.0000000   0.0000000   1.0000000), wk =   0.0156250
        k(    9) = (  -0.0000000   0.2500000   0.0000000), wk =   0.0312500
        k(   10) = (  -0.0000000   0.2500000   0.1428571), wk =   0.0312500
        k(   11) = (  -0.0000000   0.2500000   0.2857143), wk =   0.0312500
        k(   12) = (  -0.0000000   0.2500000   0.4285714), wk =   0.0312500
        k(   13) = (   0.0000000   0.2500000   0.5714286), wk =   0.0312500
        k(   14) = (  -0.0000000   0.2500000   0.7142857), wk =   0.0312500
        k(   15) = (   0.0000000   0.2500000   0.8571429), wk =   0.0312500
        k(   16) = (  -0.0000000   0.2500000   1.0000000), wk =   0.0312500
        k(   17) = (   0.0000000  -0.5000000  -0.0000000), wk =   0.0156250
        k(   18) = (   0.0000000  -0.5000000   0.1428571), wk =   0.0156250
        k(   19) = (   0.0000000  -0.5000000   0.2857143), wk =   0.0156250
        k(   20) = (   0.0000000  -0.5000000   0.4285714), wk =   0.0156250
        k(   21) = (  -0.0000000  -0.5000000   0.5714286), wk =   0.0156250
        k(   22) = (  -0.0000000  -0.5000000   0.7142857), wk =   0.0156250
        k(   23) = (   0.0000000  -0.5000000   0.8571429), wk =   0.0156250
        k(   24) = (   0.0000000  -0.5000000   1.0000000), wk =   0.0156250
        k(   25) = (   0.2500000   0.0000000  -0.0000000), wk =   0.0312500
        k(   26) = (   0.2500000   0.0000000   0.1428571), wk =   0.0312500
        k(   27) = (   0.2500000   0.0000000   0.2857143), wk =   0.0312500
        k(   28) = (   0.2500000   0.0000000   0.4285714), wk =   0.0312500
        k(   29) = (   0.2500000   0.0000000   0.5714286), wk =   0.0312500
        k(   30) = (   0.2500000   0.0000000   0.7142857), wk =   0.0312500
        k(   31) = (   0.2500000   0.0000000   0.8571429), wk =   0.0312500
        k(   32) = (   0.2500000   0.0000000   1.0000000), wk =   0.0312500
        k(   33) = (   0.2500000   0.2500000   0.0000000), wk =   0.0312500
        k(   34) = (   0.2500000   0.2500000   0.1428571), wk =   0.0312500
        k(   35) = (   0.2500000   0.2500000   0.2857143), wk =   0.0312500
        k(   36) = (   0.2500000   0.2500000   0.4285714), wk =   0.0312500
        k(   37) = (   0.2500000   0.2500000   0.5714286), wk =   0.0312500
        k(   38) = (   0.2500000   0.2500000   0.7142857), wk =   0.0312500
        k(   39) = (   0.2500000   0.2500000   0.8571429), wk =   0.0312500
        k(   40) = (   0.2500000   0.2500000   1.0000000), wk =   0.0312500
        k(   41) = (   0.2500000  -0.5000000  -0.0000000), wk =   0.0312500
        k(   42) = (   0.2500000  -0.5000000   0.1428571), wk =   0.0312500
        k(   43) = (   0.2500000  -0.5000000   0.2857143), wk =   0.0312500
        k(   44) = (   0.2500000  -0.5000000   0.4285714), wk =   0.0312500
        k(   45) = (   0.2500000  -0.5000000   0.5714286), wk =   0.0312500
        k(   46) = (   0.2500000  -0.5000000   0.7142857), wk =   0.0312500
        k(   47) = (   0.2500000  -0.5000000   0.8571429), wk =   0.0312500
        k(   48) = (   0.2500000  -0.5000000   1.0000000), wk =   0.0312500
        k(   49) = (   0.2500000  -0.2500000  -0.0000000), wk =   0.0312500
        k(   50) = (   0.2500000  -0.2500000   0.1428571), wk =   0.0312500
        k(   51) = (   0.2500000  -0.2500000   0.2857143), wk =   0.0312500
        k(   52) = (   0.2500000  -0.2500000   0.4285714), wk =   0.0312500
        k(   53) = (   0.2500000  -0.2500000   0.5714286), wk =   0.0312500
        k(   54) = (   0.2500000  -0.2500000   0.7142857), wk =   0.0312500
        k(   55) = (   0.2500000  -0.2500000   0.8571429), wk =   0.0312500
        k(   56) = (   0.2500000  -0.2500000   1.0000000), wk =   0.0312500
        k(   57) = (  -0.5000000  -0.0000000   0.0000000), wk =   0.0156250
        k(   58) = (  -0.5000000  -0.0000000   0.1428571), wk =   0.0156250
        k(   59) = (  -0.5000000  -0.0000000   0.2857143), wk =   0.0156250
        k(   60) = (  -0.5000000  -0.0000000   0.4285714), wk =   0.0156250
        k(   61) = (  -0.5000000  -0.0000000   0.5714286), wk =   0.0156250
        k(   62) = (  -0.5000000  -0.0000000   0.7142857), wk =   0.0156250
        k(   63) = (  -0.5000000  -0.0000000   0.8571429), wk =   0.0156250
        k(   64) = (  -0.5000000  -0.0000000   1.0000000), wk =   0.0156250
        k(   65) = (  -0.5000000   0.2500000   0.0000000), wk =   0.0312500
        k(   66) = (  -0.5000000   0.2500000   0.1428571), wk =   0.0312500
        k(   67) = (  -0.5000000   0.2500000   0.2857143), wk =   0.0312500
        k(   68) = (  -0.5000000   0.2500000   0.4285714), wk =   0.0312500
        k(   69) = (  -0.5000000   0.2500000   0.5714286), wk =   0.0312500
        k(   70) = (  -0.5000000   0.2500000   0.7142857), wk =   0.0312500
        k(   71) = (  -0.5000000   0.2500000   0.8571429), wk =   0.0312500
        k(   72) = (  -0.5000000   0.2500000   1.0000000), wk =   0.0312500
        k(   73) = (  -0.5000000  -0.5000000  -0.0000000), wk =   0.0156250
        k(   74) = (  -0.5000000  -0.5000000   0.1428571), wk =   0.0156250
        k(   75) = (  -0.5000000  -0.5000000   0.2857143), wk =   0.0156250
        k(   76) = (  -0.5000000  -0.5000000   0.4285714), wk =   0.0156250
        k(   77) = (  -0.5000000  -0.5000000   0.5714286), wk =   0.0156250
        k(   78) = (  -0.5000000  -0.5000000   0.7142857), wk =   0.0156250
        k(   79) = (  -0.5000000  -0.5000000   0.8571429), wk =   0.0156250
        k(   80) = (  -0.5000000  -0.5000000   1.0000000), wk =   0.0156250

     Dense  grid:  1086275 G-vectors     FFT dimensions: ( 135, 135, 144)

     Smooth grid:   361327 G-vectors     FFT dimensions: (  96,  96, 100)

     Dynamical RAM for                 wfc:       2.35 MB

     Dynamical RAM for     wfc (w. buffer):     190.56 MB

     Dynamical RAM for           str. fact:       0.39 MB

     Dynamical RAM for           local pot:       0.00 MB

     Dynamical RAM for          nlocal pot:       6.03 MB

     Dynamical RAM for                qrad:      20.97 MB

     Dynamical RAM for          rho,v,vnew:       1.22 MB

     Dynamical RAM for           G-vectors:       0.51 MB

     Dynamical RAM for          h,s,v(r/c):       2.20 MB

     Dynamical RAM for          <psi|beta>:       7.50 MB

     Dynamical RAM for                 psi:       9.41 MB

     Dynamical RAM for                hpsi:       9.41 MB

     Dynamical RAM for                spsi:       9.41 MB

     Dynamical RAM for      wfcinit/wfcrot:      13.34 MB

     Dynamical RAM for           addusdens:      31.21 MB

     Estimated static dynamical RAM per process >     221.58 MB

     Estimated max dynamical RAM per process >     259.50 MB

     Estimated total dynamical RAM >      32.44 GB

     Check: negative core charge=   -0.000002

     The potential is recalculated from file :
     ./temp/ZnO.save/charge-density

     Starting wfcs are  564 randomized atomic wfcs

     Band Structure Calculation
     Davidson diagonalization with overlap

     Computing kpt #:     1
     total cpu time spent up to now is       42.1 secs

     Computing kpt #:     2
     total cpu time spent up to now is       57.0 secs

     Computing kpt #:     3
     total cpu time spent up to now is       71.9 secs

     Computing kpt #:     4
     total cpu time spent up to now is       86.6 secs

     Computing kpt #:     5
     total cpu time spent up to now is      101.1 secs

     Computing kpt #:     6
     total cpu time spent up to now is      116.0 secs

     Computing kpt #:     7
     total cpu time spent up to now is      131.0 secs

     Computing kpt #:     8
     total cpu time spent up to now is      145.9 secs

     Computing kpt #:     9
     total cpu time spent up to now is      160.7 secs

     Computing kpt #:    10
     total cpu time spent up to now is      175.3 secs

     Computing kpt #:    11
     total cpu time spent up to now is      190.0 secs

     Computing kpt #:    12
     total cpu time spent up to now is      204.7 secs

     Computing kpt #:    13
     total cpu time spent up to now is      219.3 secs

     Computing kpt #:    14
     total cpu time spent up to now is      233.9 secs

     Computing kpt #:    15
     total cpu time spent up to now is      248.7 secs

     Computing kpt #:    16
     total cpu time spent up to now is      263.6 secs

     Computing kpt #:    17
     total cpu time spent up to now is      278.1 secs

     Computing kpt #:    18
     total cpu time spent up to now is      293.9 secs

     Computing kpt #:    19
     total cpu time spent up to now is      308.5 secs

     Computing kpt #:    20
     total cpu time spent up to now is      323.1 secs

     Computing kpt #:    21
     total cpu time spent up to now is      337.6 secs

     Computing kpt #:    22
     total cpu time spent up to now is      352.1 secs

     Computing kpt #:    23
     total cpu time spent up to now is      366.7 secs

     Computing kpt #:    24
     total cpu time spent up to now is      383.3 secs

     Computing kpt #:    25
     total cpu time spent up to now is      398.1 secs

     Computing kpt #:    26
     total cpu time spent up to now is      412.9 secs

     Computing kpt #:    27
     total cpu time spent up to now is      427.6 secs

     Computing kpt #:    28
     total cpu time spent up to now is      442.2 secs

     Computing kpt #:    29
     total cpu time spent up to now is      456.8 secs

     Computing kpt #:    30
     total cpu time spent up to now is      471.4 secs

     Computing kpt #:    31
     total cpu time spent up to now is      486.3 secs

     Computing kpt #:    32
     total cpu time spent up to now is      501.2 secs

     Computing kpt #:    33
     total cpu time spent up to now is      515.7 secs

     Computing kpt #:    34
     total cpu time spent up to now is      530.3 secs

     Computing kpt #:    35
     total cpu time spent up to now is      545.2 secs

     Computing kpt #:    36
     total cpu time spent up to now is      559.8 secs

     Computing kpt #:    37
     total cpu time spent up to now is      574.3 secs

     Computing kpt #:    38
     total cpu time spent up to now is      589.9 secs

     Computing kpt #:    39
     total cpu time spent up to now is      604.5 secs

     Computing kpt #:    40
     total cpu time spent up to now is      619.1 secs

     Computing kpt #:    41
     total cpu time spent up to now is      633.7 secs

     Computing kpt #:    42
     total cpu time spent up to now is      648.3 secs

     Computing kpt #:    43
     total cpu time spent up to now is      662.8 secs

     Computing kpt #:    44
     total cpu time spent up to now is      677.4 secs

     Computing kpt #:    45
     total cpu time spent up to now is      692.0 secs

     Computing kpt #:    46
     total cpu time spent up to now is      706.5 secs

     Computing kpt #:    47
     total cpu time spent up to now is      721.0 secs

     Computing kpt #:    48
     total cpu time spent up to now is      735.8 secs

     Computing kpt #:    49
     total cpu time spent up to now is      750.7 secs

     Computing kpt #:    50
     total cpu time spent up to now is      765.4 secs

     Computing kpt #:    51
     total cpu time spent up to now is      780.1 secs

     Computing kpt #:    52
     total cpu time spent up to now is      794.9 secs

     Computing kpt #:    53
     total cpu time spent up to now is      809.5 secs

     Computing kpt #:    54
     total cpu time spent up to now is      824.2 secs

     Computing kpt #:    55
     total cpu time spent up to now is      839.8 secs

     Computing kpt #:    56
     total cpu time spent up to now is      855.0 secs

     Computing kpt #:    57
     total cpu time spent up to now is      870.1 secs

     Computing kpt #:    58
     total cpu time spent up to now is      884.7 secs

     Computing kpt #:    59
     total cpu time spent up to now is      899.1 secs

     Computing kpt #:    60
     total cpu time spent up to now is      913.7 secs

     Computing kpt #:    61
     total cpu time spent up to now is      928.2 secs

     Computing kpt #:    62
     total cpu time spent up to now is      942.6 secs

     Computing kpt #:    63
     total cpu time spent up to now is      957.2 secs

     Computing kpt #:    64
     total cpu time spent up to now is      971.9 secs

     Computing kpt #:    65
     total cpu time spent up to now is      986.5 secs

     Computing kpt #:    66
     total cpu time spent up to now is     1000.9 secs

     Computing kpt #:    67
     total cpu time spent up to now is     1015.4 secs

     Computing kpt #:    68
     total cpu time spent up to now is     1030.4 secs

     Computing kpt #:    69
     total cpu time spent up to now is     1045.0 secs

     Computing kpt #:    70
     total cpu time spent up to now is     1060.7 secs

     Computing kpt #:    71
     total cpu time spent up to now is     1075.8 secs

     Computing kpt #:    72
     total cpu time spent up to now is     1090.5 secs

     Computing kpt #:    73
     total cpu time spent up to now is     1105.1 secs

     Computing kpt #:    74
     total cpu time spent up to now is     1119.7 secs

     Computing kpt #:    75
     total cpu time spent up to now is     1134.1 secs

     Computing kpt #:    76
     total cpu time spent up to now is     1148.6 secs

     Computing kpt #:    77
     total cpu time spent up to now is     1163.7 secs

     Computing kpt #:    78
     total cpu time spent up to now is     1178.1 secs

     Computing kpt #:    79
     total cpu time spent up to now is     1192.7 secs

     Computing kpt #:    80
     total cpu time spent up to now is     1207.3 secs

     ethr =  1.14E-12,  avg # of iterations = 13.3

     total cpu time spent up to now is     1207.3 secs

     End of band structure calculation

          k = 0.0000 0.0000 0.0000 ( 45253 PWs)   bands (ev):

  -114.8813-114.8797-114.8754-114.8750-114.8736-114.8731-114.8731-114.8724
  -114.8717-114.8712-114.8692-114.8688-114.8668-114.8665-114.8664-114.8648
  -114.8644-114.8644-114.8641-114.8633-114.8592-114.8591-114.8585-114.8579
  -114.8578-114.8574-114.8567-114.8566-114.8553-114.8478 -69.2421 -69.2388
   -69.2382 -69.2381 -69.2347 -69.2340 -69.2335 -69.2331 -69.2330 -69.2327
   -69.2327 -69.2322 -69.2321 -69.2320 -69.2315 -69.2311 -69.2311 -69.2304
   -69.2303 -69.2302 -69.2292 -69.2291 -69.2290 -69.2290 -69.2287 -69.2282
   -69.2274 -69.2269 -69.2268 -69.2265 -69.2264 -69.2263 -69.2262 -69.2252
   -69.2251 -69.2249 -69.2244 -69.2243 -69.2241 -69.2240 -69.2234 -69.2231
   -69.2230 -69.2228 -69.2227 -69.2225 -69.2225 -69.2221 -69.2217 -69.2216
   -69.2210 -69.2209 -69.2208 -69.2202 -69.2201 -69.2200 -69.2199 -69.2193
   -69.2192 -69.2189 -69.2186 -69.2184 -69.2181 -69.2177 -69.2174 -69.2173
   -69.2170 -69.2168 -69.2167 -69.2160 -69.2156 -69.2155 -69.2152 -69.2148
   -69.2138 -69.2138 -69.2132 -69.2130 -69.2128 -69.2127 -69.2123 -69.2117
   -69.2117 -69.2112 -69.2098 -69.2091 -69.2088 -69.2084 -69.2045 -69.2009
   -64.3466 -64.3400 -64.3324 -64.3318 -64.3214 -64.3189 -31.3368 -31.3318
   -31.3307 -31.3304 -31.3271 -31.3266 -31.3246 -31.3230 -31.3214 -31.3198
   -31.3172 -31.3143 -31.3125 -31.3070 -31.3062 -31.3059 -31.3026 -31.3000
    -9.6867  -9.3297  -9.3135  -9.2390  -9.2232  -9.2162  -9.1759  -9.1617
    -9.1422  -9.0306  -9.0251  -9.0049  -8.9939  -8.9896  -8.9648  -8.9563
    -8.9175  -8.9088  -8.8991  -8.8831  -8.8803  -8.8726  -8.8692  -8.8346
    -8.8174  -8.7737  -8.7523  -8.7383  -8.7322  -8.7051  -8.7035  -8.6951
    -8.6570  -8.6023  -8.5545  -8.4243   2.1134   2.1232   2.1323   2.1439
     2.1566   2.1717   2.1791   2.1874   2.2117   2.2349   2.2574   2.2661
     2.2755   2.3103   2.3199   2.3463   2.3781   2.3853   2.3966   2.4689
     2.5232   2.5373   2.5393   2.5440   2.5647   2.5672   2.5879   2.5991
     2.6061   2.6324   2.6401   2.6475   2.6550   2.6614   2.6714   2.6846
     2.7041   2.7135   2.7264   2.7366   2.7397   2.7608   2.7656   2.7734
     2.7931   2.8037   2.8055   2.8165   2.8316   2.8364   2.8507   2.8609
     2.8830   2.8858   2.8930   2.8943   2.8998   2.9026   2.9063   2.9151
     2.9167   2.9193   2.9294   2.9385   2.9464   2.9638   2.9688   2.9840
     2.9866   3.0161   3.0173   3.0267   3.0455   3.0662   3.0792   3.0931
     3.1371   3.1674   3.1897   3.2049   3.2183   3.2357   3.2466   3.2629
     3.2901   3.3025   3.3135   3.3451   3.3570   3.3637   3.3756   3.4185
     3.4258   3.4418   3.4714   3.4977   3.5219   3.5298   3.5488   3.5634
     3.5782   3.6180   3.6340   3.6459   3.6565   3.6633   3.6768   3.6836
     3.6894   3.7111   3.7177   3.7306   3.7367   3.7467   3.7577   3.7652
     3.7668   3.7729   3.7832   3.7920   3.7965   3.7993   3.8065   3.8160
     3.8229   3.8277   3.8308   3.8344   3.8419   3.8443   3.8483   3.8500
     3.8526   3.8701   3.8753   3.8855   3.8909   3.8999   3.9068   3.9113
     3.9179   3.9183   3.9384   3.9561   4.0131   4.0365   4.0556   4.0632
     4.0733   4.0981   4.1141   4.2028   4.2099   4.2352   4.2960   4.3046
     4.3387   4.3925   4.4171   4.4448   4.4606   4.4887   4.5164   4.5280
     4.5748   4.6816   4.7095   4.7370   4.7601   4.8165   4.8673   4.9079
     4.9461   4.9636   4.9838   4.9999   5.0275   5.0482   5.0947   5.1118
     5.1733   5.1976   5.2356   5.2847   5.3258   5.4259   5.4453   5.4599
     5.4775   5.6949   5.7308   5.7459   5.8121   5.8709   5.9000   5.9758
     6.0001   6.1613   6.1880   6.2184   6.2242   6.2505   6.2550   6.2855
     6.3040   6.3522   6.3639   6.4021   6.4152   6.4951   6.5543   6.5807
     6.6182   6.6715   6.7197   6.7317   6.7652   6.7812   6.8090   6.8218
     6.8506   6.8538   6.8679   6.8907   6.8962   6.9062   6.9160   6.9350
     6.9431   6.9682   6.9813   6.9924   6.9947   7.0102   7.0207   7.0278
     7.0471   7.2544   7.2853   7.2997   7.3141   7.3296   7.3502   7.3595
     7.3911   7.4297   7.4525   7.4992   7.5256   7.5722   7.5818   7.7188
     7.7343   7.7456   7.7531   8.0273   8.1087   8.1149

     occupation numbers 
     1.0000   1.0000   1.0000   1.0000   1.0000   1.0000   1.0000   1.0000
     1.0000   1.0000   1.0000   1.0000   1.0000   1.0000   1.0000   1.0000
     1.0000   1.0000   1.0000   1.0000   1.0000   1.0000   1.0000   1.0000
     1.0000   1.0000   1.0000   1.0000   1.0000   1.0000   1.0000   1.0000
     1.0000   1.0000   1.0000   1.0000   1.0000   1.0000   1.0000   1.0000
     1.0000   1.0000   1.0000   1.0000   1.0000   1.0000   1.0000   1.0000
     1.0000   1.0000   1.0000   1.0000   1.0000   1.0000   1.0000   1.0000
     1.0000   1.0000   1.0000   1.0000   1.0000   1.0000   1.0000   1.0000
     1.0000   1.0000   1.0000   1.0000   1.0000   1.0000   1.0000   1.0000
     1.0000   1.0000   1.0000   1.0000   1.0000   1.0000   1.0000   1.0000
     1.0000   1.0000   1.0000   1.0000   1.0000   1.0000   1.0000   1.0000
     1.0000   1.0000   1.0000   1.0000   1.0000   1.0000   1.0000   1.0000
     1.0000   1.0000   1.0000   1.0000   1.0000   1.0000   1.0000   1.0000
     1.0000   1.0000   1.0000   1.0000   1.0000   1.0000   1.0000   1.0000
     1.0000   1.0000   1.0000   1.0000   1.0000   1.0000   1.0000   1.0000
     1.0000   1.0000   1.0000   1.0000   1.0000   1.0000   1.0000   1.0000
     1.0000   1.0000   1.0000   1.0000   1.0000   1.0000   1.0000   1.0000
     1.0000   1.0000   1.0000   1.0000   1.0000   1.0000   1.0000   1.0000
     1.0000   1.0000   1.0000   1.0000   1.0000   1.0000   1.0000   1.0000
     1.0000   1.0000   1.0000   1.0000   1.0000   1.0000   1.0000   1.0000
     1.0000   1.0000   1.0000   1.0000   1.0000   1.0000   1.0000   1.0000
     1.0000   1.0000   1.0000   1.0000   1.0000   1.0000   1.0000   1.0000
     1.0000   1.0000   1.0000   1.0000   1.0000   1.0000   1.0000   1.0000
     1.0000   1.0000   1.0000   1.0000   1.0000   1.0000   1.0000   1.0000
     1.0000   1.0000   1.0000   1.0000   1.0000   1.0000   1.0000   1.0000
     1.0000   1.0000   1.0000   1.0000   1.0000   1.0000   1.0000   1.0000
     1.0000   1.0000   1.0000   1.0000   1.0000   1.0000   1.0000   1.0000
     1.0000   1.0000   1.0000   1.0000   1.0000   1.0000   1.0000   1.0000
     1.0000   1.0000   1.0000   1.0000   1.0000   1.0000   1.0000   1.0000
     1.0000   1.0000   1.0000   1.0000   1.0000   1.0000   1.0000   1.0000
     1.0000   1.0000   1.0000   1.0000   1.0000   1.0000   1.0000   1.0000
     1.0000   1.0000   1.0000   1.0000   1.0000   1.0000   1.0000   1.0000
     1.0000   1.0000   1.0000   1.0000   1.0000   1.0000   1.0000   1.0000
     1.0000   1.0000   1.0000   1.0000   1.0000   1.0000   1.0000   1.0000
     1.0000   1.0000   1.0000   1.0000   1.0000   1.0000   1.0000   1.0000
     1.0000   1.0000   1.0000   1.0000   1.0000   1.0000   1.0000   1.0000
     1.0000   1.0000   1.0000   1.0000   1.0000   1.0000   1.0000   1.0000
     1.0000   1.0000   1.0000   1.0000   1.0000   1.0000   1.0000   1.0000
     1.0000   1.0000   1.0000   1.0000   1.0000   1.0000   1.0000   1.0000
     1.0000   1.0000   1.0000   1.0000   1.0000   1.0000   1.0000   1.0000
     1.0000   1.0000   1.0000   1.0000   1.0000   1.0000   1.0000   1.0000
     1.0000   1.0000   1.0000   1.0000   1.0000   1.0000   1.0000   1.0000
     1.0000   1.0000   1.0000   1.0000   1.0000   1.0000   1.0000   1.0000
     1.0000   1.0000   1.0000   1.0000   1.0000   1.0000   1.0000   1.0000
     1.0000   1.0000   1.0000   1.0000   1.0000   1.0000   1.0000   1.0000
     1.0000   1.0000   1.0000   1.0000   1.0000   1.0000   1.0000   1.0000
     1.0000   1.0000   1.0000   1.0000   1.0000   1.0000   1.0000   1.0000
     1.0000   1.0000   1.0000   1.0000   1.0000   1.0000   1.0000   1.0000
     1.0000   1.0000   1.0000   1.0000   1.0000   1.0000   1.0000   1.0000
     1.0000   1.0000   1.0000   1.0000   1.0000   1.0000   1.0000   1.0000
     1.0000   1.0000   1.0000   1.0000   1.0000   1.0000   1.0000   1.0000
     1.0000   1.0000   1.0000   1.0000   1.0000   1.0000   1.0000   1.0000
     1.0000   1.0000   1.0000   1.0000   1.0000   1.0000   1.0000   1.0000
     1.0000   1.0000   1.0000   1.0000   1.0000   1.0000   1.0000   1.0000
     1.0000   1.0000   1.0000   1.0000   1.0000   1.0000

          k =-0.0000 0.0000 0.1334 ( 45166 PWs)   bands (ev):

  -114.8813-114.8797-114.8754-114.8750-114.8736-114.8731-114.8731-114.8724
  -114.8717-114.8712-114.8692-114.8688-114.8668-114.8665-114.8664-114.8648
  -114.8644-114.8644-114.8641-114.8633-114.8592-114.8591-114.8585-114.8579
  -114.8578-114.8574-114.8567-114.8566-114.8553-114.8478 -69.2421 -69.2388
   -69.2382 -69.2381 -69.2347 -69.2340 -69.2335 -69.2331 -69.2330 -69.2327
   -69.2327 -69.2322 -69.2321 -69.2320 -69.2315 -69.2311 -69.2311 -69.2304
   -69.2303 -69.2302 -69.2292 -69.2291 -69.2290 -69.2290 -69.2287 -69.2282
   -69.2274 -69.2269 -69.2268 -69.2265 -69.2264 -69.2263 -69.2262 -69.2252
   -69.2251 -69.2249 -69.2244 -69.2243 -69.2241 -69.2240 -69.2234 -69.2231
   -69.2230 -69.2228 -69.2227 -69.2225 -69.2225 -69.2221 -69.2217 -69.2216
   -69.2210 -69.2209 -69.2208 -69.2202 -69.2201 -69.2200 -69.2199 -69.2193
   -69.2192 -69.2189 -69.2186 -69.2184 -69.2181 -69.2177 -69.2174 -69.2173
   -69.2170 -69.2168 -69.2167 -69.2160 -69.2156 -69.2155 -69.2152 -69.2148
   -69.2138 -69.2138 -69.2132 -69.2130 -69.2128 -69.2127 -69.2123 -69.2117
   -69.2117 -69.2112 -69.2098 -69.2091 -69.2088 -69.2084 -69.2045 -69.2009
   -64.3466 -64.3400 -64.3324 -64.3318 -64.3214 -64.3189 -31.3368 -31.3318
   -31.3307 -31.3304 -31.3271 -31.3266 -31.3246 -31.3230 -31.3214 -31.3198
   -31.3172 -31.3143 -31.3125 -31.3070 -31.3062 -31.3059 -31.3026 -31.3000
    -9.6787  -9.3973  -9.2548  -9.2319  -9.2180  -9.2090  -9.1722  -9.1586
    -9.1369  -9.0668  -9.0343  -9.0290  -9.0021  -8.9793  -8.9585  -8.9468
    -8.9262  -8.9081  -8.8936  -8.8847  -8.8728  -8.8622  -8.8504  -8.8315
    -8.8185  -8.7742  -8.7524  -8.7392  -8.7345  -8.7074  -8.7047  -8.6974
    -8.6578  -8.6042  -8.5555  -8.4248   2.1192   2.1259   2.1355   2.1507
     2.1604   2.1735   2.1922   2.1996   2.2208   2.2453   2.2633   2.2732
     2.2839   2.3103   2.3211   2.3476   2.3766   2.3834   2.4123   2.4731
     2.5256   2.5366   2.5389   2.5430   2.5663   2.5680   2.5770   2.5924
     2.6070   2.6229   2.6359   2.6438   2.6464   2.6598   2.6673   2.6813
     2.6939   2.7009   2.7224   2.7323   2.7395   2.7563   2.7642   2.7748
     2.7907   2.8023   2.8092   2.8176   2.8362   2.8373   2.8499   2.8667
     2.8806   2.8849   2.8900   2.8966   2.8990   2.9045   2.9094   2.9131
     2.9179   2.9225   2.9309   2.9340   2.9488   2.9630   2.9658   2.9825
     2.9902   3.0146   3.0158   3.0275   3.0457   3.0628   3.0766   3.0858
     3.1308   3.1575   3.1771   3.1895   3.2027   3.2205   3.2333   3.2460
     3.2619   3.2829   3.2977   3.3188   3.3317   3.3556   3.3704   3.4010
     3.4199   3.4432   3.4726   3.4933   3.5163   3.5409   3.5604   3.5635
     3.5861   3.6015   3.6133   3.6341   3.6529   3.6648   3.6709   3.6836
     3.6976   3.7113   3.7289   3.7379   3.7447   3.7518   3.7570   3.7668
     3.7736   3.7787   3.7848   3.7909   3.7941   3.8013   3.8061   3.8129
     3.8168   3.8214   3.8244   3.8325   3.8461   3.8498   3.8574   3.8666
     3.8716   3.8778   3.8802   3.8903   3.8926   3.8968   3.9047   3.9118
     3.9167   3.9272   3.9435   3.9651   4.0064   4.0163   4.0318   4.0552
     4.0648   4.0955   4.1401   4.2530   4.2783   4.2944   4.3187   4.3369
     4.3621   4.4139   4.4369   4.4510   4.4678   4.4966   4.5183   4.5408
     4.5749   4.6776   4.7107   4.7401   4.7658   4.8232   4.8808   4.9073
     4.9507   4.9672   4.9837   5.0005   5.0307   5.0619   5.0866   5.1226
     5.1669   5.1929   5.2505   5.2694   5.2813   5.3154   5.3566   5.5228
     5.6229   5.6371   5.7152   5.7701   5.8539   5.8686   5.9171   5.9657
     6.0555   6.1550   6.2104   6.2323   6.2485   6.2576   6.2910   6.2981
     6.3250   6.3491   6.3751   6.3827   6.3898   6.4143   6.4641   6.4889
     6.5034   6.5375   6.5628   6.6805   6.7079   6.7301   6.7670   6.7966
     6.8081   6.8211   6.8343   6.8805   6.9124   6.9301   6.9425   6.9918
     7.0139   7.0324   7.0397   7.0622   7.0691   7.0732   7.0949   7.1064
     7.1250   7.2713   7.2971   7.3097   7.3241   7.3422   7.3617   7.3677
     7.3990   7.4280   7.4477   7.4907   7.5153   7.5600   7.5685   7.6635
     7.6713   7.8034   7.8119   7.9118   8.1024   8.1083

     occupation numbers 
     1.0000   1.0000   1.0000   1.0000   1.0000   1.0000   1.0000   1.0000
     1.0000   1.0000   1.0000   1.0000   1.0000   1.0000   1.0000   1.0000
     1.0000   1.0000   1.0000   1.0000   1.0000   1.0000   1.0000   1.0000
     1.0000   1.0000   1.0000   1.0000   1.0000   1.0000   1.0000   1.0000
     1.0000   1.0000   1.0000   1.0000   1.0000   1.0000   1.0000   1.0000
     1.0000   1.0000   1.0000   1.0000   1.0000   1.0000   1.0000   1.0000
     1.0000   1.0000   1.0000   1.0000   1.0000   1.0000   1.0000   1.0000
     1.0000   1.0000   1.0000   1.0000   1.0000   1.0000   1.0000   1.0000
     1.0000   1.0000   1.0000   1.0000   1.0000   1.0000   1.0000   1.0000
     1.0000   1.0000   1.0000   1.0000   1.0000   1.0000   1.0000   1.0000
     1.0000   1.0000   1.0000   1.0000   1.0000   1.0000   1.0000   1.0000
     1.0000   1.0000   1.0000   1.0000   1.0000   1.0000   1.0000   1.0000
     1.0000   1.0000   1.0000   1.0000   1.0000   1.0000   1.0000   1.0000
     1.0000   1.0000   1.0000   1.0000   1.0000   1.0000   1.0000   1.0000
     1.0000   1.0000   1.0000   1.0000   1.0000   1.0000   1.0000   1.0000
     1.0000   1.0000   1.0000   1.0000   1.0000   1.0000   1.0000   1.0000
     1.0000   1.0000   1.0000   1.0000   1.0000   1.0000   1.0000   1.0000
     1.0000   1.0000   1.0000   1.0000   1.0000   1.0000   1.0000   1.0000
     1.0000   1.0000   1.0000   1.0000   1.0000   1.0000   1.0000   1.0000
     1.0000   1.0000   1.0000   1.0000   1.0000   1.0000   1.0000   1.0000
     1.0000   1.0000   1.0000   1.0000   1.0000   1.0000   1.0000   1.0000
     1.0000   1.0000   1.0000   1.0000   1.0000   1.0000   1.0000   1.0000
     1.0000   1.0000   1.0000   1.0000   1.0000   1.0000   1.0000   1.0000
     1.0000   1.0000   1.0000   1.0000   1.0000   1.0000   1.0000   1.0000
     1.0000   1.0000   1.0000   1.0000   1.0000   1.0000   1.0000   1.0000
     1.0000   1.0000   1.0000   1.0000   1.0000   1.0000   1.0000   1.0000
     1.0000   1.0000   1.0000   1.0000   1.0000   1.0000   1.0000   1.0000
     1.0000   1.0000   1.0000   1.0000   1.0000   1.0000   1.0000   1.0000
     1.0000   1.0000   1.0000   1.0000   1.0000   1.0000   1.0000   1.0000
     1.0000   1.0000   1.0000   1.0000   1.0000   1.0000   1.0000   1.0000
     1.0000   1.0000   1.0000   1.0000   1.0000   1.0000   1.0000   1.0000
     1.0000   1.0000   1.0000   1.0000   1.0000   1.0000   1.0000   1.0000
     1.0000   1.0000   1.0000   1.0000   1.0000   1.0000   1.0000   1.0000
     1.0000   1.0000   1.0000   1.0000   1.0000   1.0000   1.0000   1.0000
     1.0000   1.0000   1.0000   1.0000   1.0000   1.0000   1.0000   1.0000
     1.0000   1.0000   1.0000   1.0000   1.0000   1.0000   1.0000   1.0000
     1.0000   1.0000   1.0000   1.0000   1.0000   1.0000   1.0000   1.0000
     1.0000   1.0000   1.0000   1.0000   1.0000   1.0000   1.0000   1.0000
     1.0000   1.0000   1.0000   1.0000   1.0000   1.0000   1.0000   1.0000
     1.0000   1.0000   1.0000   1.0000   1.0000   1.0000   1.0000   1.0000
     1.0000   1.0000   1.0000   1.0000   1.0000   1.0000   1.0000   1.0000
     1.0000   1.0000   1.0000   1.0000   1.0000   1.0000   1.0000   1.0000
     1.0000   1.0000   1.0000   1.0000   1.0000   1.0000   1.0000   1.0000
     1.0000   1.0000   1.0000   1.0000   1.0000   1.0000   1.0000   1.0000
     1.0000   1.0000   1.0000   1.0000   1.0000   1.0000   1.0000   1.0000
     1.0000   1.0000   1.0000   1.0000   1.0000   1.0000   1.0000   1.0000
     1.0000   1.0000   1.0000   1.0000   1.0000   1.0000   1.0000   1.0000
     1.0000   1.0000   1.0000   1.0000   1.0000   1.0000   1.0000   1.0000
     1.0000   1.0000   1.0000   1.0000   1.0000   1.0000   1.0000   1.0000
     1.0000   1.0000   1.0000   1.0000   1.0000   1.0000   1.0000   1.0000
     1.0000   1.0000   1.0000   1.0000   1.0000   1.0000   1.0000   1.0000
     1.0000   1.0000   1.0000   1.0000   1.0000   1.0000   1.0000   1.0000
     1.0000   1.0000   1.0000   1.0000   1.0000   1.0000   1.0000   1.0000
     1.0000   1.0000   1.0000   1.0000   1.0000   1.0000   1.0000   1.0000
     1.0000   1.0000   1.0000   1.0000   1.0000   1.0000

          k =-0.0000 0.0000 0.2669 ( 45150 PWs)   bands (ev):

  -114.8813-114.8797-114.8754-114.8750-114.8736-114.8731-114.8731-114.8724
  -114.8717-114.8712-114.8692-114.8688-114.8668-114.8665-114.8664-114.8648
  -114.8644-114.8644-114.8641-114.8633-114.8592-114.8591-114.8585-114.8579
  -114.8578-114.8574-114.8567-114.8566-114.8553-114.8478 -69.2421 -69.2388
   -69.2382 -69.2381 -69.2347 -69.2340 -69.2335 -69.2331 -69.2330 -69.2327
   -69.2327 -69.2322 -69.2321 -69.2320 -69.2315 -69.2311 -69.2311 -69.2304
   -69.2303 -69.2302 -69.2292 -69.2291 -69.2290 -69.2290 -69.2287 -69.2282
   -69.2274 -69.2269 -69.2268 -69.2265 -69.2264 -69.2263 -69.2262 -69.2252
   -69.2251 -69.2249 -69.2244 -69.2243 -69.2241 -69.2240 -69.2234 -69.2231
   -69.2230 -69.2228 -69.2228 -69.2225 -69.2225 -69.2221 -69.2217 -69.2216
   -69.2210 -69.2209 -69.2208 -69.2202 -69.2201 -69.2200 -69.2199 -69.2193
   -69.2192 -69.2189 -69.2186 -69.2184 -69.2181 -69.2177 -69.2174 -69.2173
   -69.2170 -69.2168 -69.2167 -69.2160 -69.2156 -69.2155 -69.2152 -69.2148
   -69.2138 -69.2138 -69.2132 -69.2130 -69.2128 -69.2127 -69.2123 -69.2117
   -69.2117 -69.2112 -69.2098 -69.2091 -69.2088 -69.2084 -69.2045 -69.2009
   -64.3466 -64.3400 -64.3324 -64.3318 -64.3214 -64.3189 -31.3368 -31.3318
   -31.3307 -31.3304 -31.3271 -31.3266 -31.3246 -31.3230 -31.3214 -31.3198
   -31.3172 -31.3143 -31.3125 -31.3070 -31.3062 -31.3059 -31.3026 -31.3000
    -9.6560  -9.4681  -9.2240  -9.2147  -9.2047  -9.1761  -9.1626  -9.1509
    -9.1217  -9.1055  -9.0698  -9.0594  -9.0325  -8.9857  -8.9702  -8.9358
    -8.9226  -8.9011  -8.8759  -8.8727  -8.8657  -8.8430  -8.8349  -8.8197
    -8.8140  -8.7764  -8.7530  -8.7414  -8.7398  -8.7149  -8.7073  -8.7019
    -8.6593  -8.6086  -8.5579  -8.4260   2.1312   2.1376   2.1459   2.1640
     2.1696   2.1802   2.2176   2.2197   2.2377   2.2631   2.2785   2.2870
     2.3099   2.3270   2.3363   2.3623   2.3819   2.3888   2.4331   2.4841
     2.5188   2.5273   2.5336   2.5391   2.5455   2.5526   2.5668   2.5791
     2.5911   2.6007   2.6183   2.6349   2.6462   2.6523   2.6628   2.6739
     2.6811   2.6971   2.7085   2.7254   2.7394   2.7498   2.7649   2.7780
     2.7895   2.7951   2.8021   2.8168   2.8365   2.8451   2.8556   2.8604
     2.8677   2.8802   2.8872   2.8956   2.8995   2.9032   2.9078   2.9147
     2.9252   2.9288   2.9334   2.9480   2.9548   2.9644   2.9695   2.9826
     2.9989   3.0127   3.0161   3.0264   3.0434   3.0544   3.0624   3.0719
     3.1080   3.1222   3.1344   3.1491   3.1565   3.1697   3.1834   3.2136
     3.2422   3.2529   3.2774   3.2870   3.3083   3.3369   3.3638   3.3764
     3.4097   3.4387   3.4448   3.4990   3.5056   3.5202   3.5583   3.5780
     3.5841   3.6047   3.6247   3.6325   3.6523   3.6625   3.6778   3.6879
     3.6968   3.7116   3.7354   3.7395   3.7417   3.7533   3.7547   3.7655
     3.7719   3.7746   3.7811   3.7890   3.7920   3.7978   3.8028   3.8096
     3.8165   3.8234   3.8357   3.8430   3.8574   3.8635   3.8696   3.8796
     3.8826   3.8869   3.8924   3.8997   3.9022   3.9074   3.9118   3.9148
     3.9333   3.9427   3.9512   3.9691   3.9902   3.9972   4.0210   4.0422
     4.0495   4.0826   4.2194   4.3300   4.3432   4.3542   4.3795   4.4177
     4.4330   4.4530   4.4627   4.4983   4.5132   4.5233   4.5535   4.5698
     4.5881   4.6630   4.6947   4.7481   4.7746   4.8124   4.8914   4.9065
     4.9548   4.9714   4.9903   5.0044   5.0281   5.0491   5.0737   5.1110
     5.1585   5.1796   5.2264   5.2423   5.3072   5.3298   5.3575   5.4375
     5.6886   5.7389   5.7729   5.8146   5.8546   5.8759   5.9125   5.9479
     6.0624   6.0997   6.1539   6.1736   6.2183   6.2306   6.2774   6.2843
     6.2970   6.3301   6.3506   6.3589   6.3693   6.3892   6.4060   6.4195
     6.4340   6.4512   6.5640   6.5917   6.6127   6.6384   6.6898   6.7048
     6.7169   6.7602   6.7664   6.8001   6.8589   6.9704   6.9934   7.0670
     7.0756   7.1049   7.1310   7.1720   7.1888   7.2064   7.2197   7.2320
     7.2391   7.3074   7.3289   7.3355   7.3484   7.3707   7.3864   7.3941
     7.4105   7.4293   7.4430   7.4703   7.4877   7.5281   7.5317   7.5992
     7.6026   7.6670   7.8650   7.8725   8.0855   8.0908

     occupation numbers 
     1.0000   1.0000   1.0000   1.0000   1.0000   1.0000   1.0000   1.0000
     1.0000   1.0000   1.0000   1.0000   1.0000   1.0000   1.0000   1.0000
     1.0000   1.0000   1.0000   1.0000   1.0000   1.0000   1.0000   1.0000
     1.0000   1.0000   1.0000   1.0000   1.0000   1.0000   1.0000   1.0000
     1.0000   1.0000   1.0000   1.0000   1.0000   1.0000   1.0000   1.0000
     1.0000   1.0000   1.0000   1.0000   1.0000   1.0000   1.0000   1.0000
     1.0000   1.0000   1.0000   1.0000   1.0000   1.0000   1.0000   1.0000
     1.0000   1.0000   1.0000   1.0000   1.0000   1.0000   1.0000   1.0000
     1.0000   1.0000   1.0000   1.0000   1.0000   1.0000   1.0000   1.0000
     1.0000   1.0000   1.0000   1.0000   1.0000   1.0000   1.0000   1.0000
     1.0000   1.0000   1.0000   1.0000   1.0000   1.0000   1.0000   1.0000
     1.0000   1.0000   1.0000   1.0000   1.0000   1.0000   1.0000   1.0000
     1.0000   1.0000   1.0000   1.0000   1.0000   1.0000   1.0000   1.0000
     1.0000   1.0000   1.0000   1.0000   1.0000   1.0000   1.0000   1.0000
     1.0000   1.0000   1.0000   1.0000   1.0000   1.0000   1.0000   1.0000
     1.0000   1.0000   1.0000   1.0000   1.0000   1.0000   1.0000   1.0000
     1.0000   1.0000   1.0000   1.0000   1.0000   1.0000   1.0000   1.0000
     1.0000   1.0000   1.0000   1.0000   1.0000   1.0000   1.0000   1.0000
     1.0000   1.0000   1.0000   1.0000   1.0000   1.0000   1.0000   1.0000
     1.0000   1.0000   1.0000   1.0000   1.0000   1.0000   1.0000   1.0000
     1.0000   1.0000   1.0000   1.0000   1.0000   1.0000   1.0000   1.0000
     1.0000   1.0000   1.0000   1.0000   1.0000   1.0000   1.0000   1.0000
     1.0000   1.0000   1.0000   1.0000   1.0000   1.0000   1.0000   1.0000
     1.0000   1.0000   1.0000   1.0000   1.0000   1.0000   1.0000   1.0000
     1.0000   1.0000   1.0000   1.0000   1.0000   1.0000   1.0000   1.0000
     1.0000   1.0000   1.0000   1.0000   1.0000   1.0000   1.0000   1.0000
     1.0000   1.0000   1.0000   1.0000   1.0000   1.0000   1.0000   1.0000
     1.0000   1.0000   1.0000   1.0000   1.0000   1.0000   1.0000   1.0000
     1.0000   1.0000   1.0000   1.0000   1.0000   1.0000   1.0000   1.0000
     1.0000   1.0000   1.0000   1.0000   1.0000   1.0000   1.0000   1.0000
     1.0000   1.0000   1.0000   1.0000   1.0000   1.0000   1.0000   1.0000
     1.0000   1.0000   1.0000   1.0000   1.0000   1.0000   1.0000   1.0000
     1.0000   1.0000   1.0000   1.0000   1.0000   1.0000   1.0000   1.0000
     1.0000   1.0000   1.0000   1.0000   1.0000   1.0000   1.0000   1.0000
     1.0000   1.0000   1.0000   1.0000   1.0000   1.0000   1.0000   1.0000
     1.0000   1.0000   1.0000   1.0000   1.0000   1.0000   1.0000   1.0000
     1.0000   1.0000   1.0000   1.0000   1.0000   1.0000   1.0000   1.0000
     1.0000   1.0000   1.0000   1.0000   1.0000   1.0000   1.0000   1.0000
     1.0000   1.0000   1.0000   1.0000   1.0000   1.0000   1.0000   1.0000
     1.0000   1.0000   1.0000   1.0000   1.0000   1.0000   1.0000   1.0000
     1.0000   1.0000   1.0000   1.0000   1.0000   1.0000   1.0000   1.0000
     1.0000   1.0000   1.0000   1.0000   1.0000   1.0000   1.0000   1.0000
     1.0000   1.0000   1.0000   1.0000   1.0000   1.0000   1.0000   1.0000
     1.0000   1.0000   1.0000   1.0000   1.0000   1.0000   1.0000   1.0000
     1.0000   1.0000   1.0000   1.0000   1.0000   1.0000   1.0000   1.0000
     1.0000   1.0000   1.0000   1.0000   1.0000   1.0000   1.0000   1.0000
     1.0000   1.0000   1.0000   1.0000   1.0000   1.0000   1.0000   1.0000
     1.0000   1.0000   1.0000   1.0000   1.0000   1.0000   1.0000   1.0000
     1.0000   1.0000   1.0000   1.0000   1.0000   1.0000   1.0000   1.0000
     1.0000   1.0000   1.0000   1.0000   1.0000   1.0000   1.0000   1.0000
     1.0000   1.0000   1.0000   1.0000   1.0000   1.0000   1.0000   1.0000
     1.0000   1.0000   1.0000   1.0000   1.0000   1.0000   1.0000   1.0000
     1.0000   1.0000   1.0000   1.0000   1.0000   1.0000   1.0000   1.0000
     1.0000   1.0000   1.0000   1.0000   1.0000   1.0000   1.0000   1.0000
     1.0000   1.0000   1.0000   1.0000   1.0000   1.0000

          k =-0.0000 0.0000 0.4003 ( 45181 PWs)   bands (ev):

  -114.8813-114.8797-114.8754-114.8750-114.8736-114.8731-114.8731-114.8724
  -114.8717-114.8712-114.8692-114.8688-114.8668-114.8665-114.8664-114.8648
  -114.8644-114.8644-114.8641-114.8633-114.8592-114.8591-114.8585-114.8579
  -114.8578-114.8574-114.8567-114.8566-114.8553-114.8478 -69.2421 -69.2388
   -69.2382 -69.2381 -69.2347 -69.2340 -69.2335 -69.2331 -69.2330 -69.2327
   -69.2327 -69.2322 -69.2321 -69.2320 -69.2315 -69.2311 -69.2311 -69.2304
   -69.2303 -69.2302 -69.2292 -69.2291 -69.2290 -69.2290 -69.2287 -69.2282
   -69.2274 -69.2269 -69.2268 -69.2265 -69.2264 -69.2263 -69.2262 -69.2252
   -69.2251 -69.2249 -69.2244 -69.2243 -69.2241 -69.2240 -69.2234 -69.2231
   -69.2230 -69.2228 -69.2228 -69.2225 -69.2225 -69.2221 -69.2217 -69.2216
   -69.2210 -69.2209 -69.2208 -69.2202 -69.2201 -69.2200 -69.2199 -69.2193
   -69.2192 -69.2189 -69.2186 -69.2184 -69.2181 -69.2177 -69.2174 -69.2173
   -69.2170 -69.2168 -69.2167 -69.2160 -69.2156 -69.2155 -69.2152 -69.2148
   -69.2138 -69.2138 -69.2132 -69.2130 -69.2128 -69.2127 -69.2123 -69.2117
   -69.2117 -69.2112 -69.2098 -69.2091 -69.2088 -69.2084 -69.2045 -69.2009
   -64.3466 -64.3400 -64.3324 -64.3318 -64.3214 -64.3189 -31.3368 -31.3318
   -31.3307 -31.3304 -31.3271 -31.3266 -31.3246 -31.3230 -31.3214 -31.3198
   -31.3172 -31.3143 -31.3125 -31.3070 -31.3062 -31.3059 -31.3026 -31.3000
    -9.6268  -9.5224  -9.2042  -9.2016  -9.1919  -9.1592  -9.1494  -9.1415
    -9.1407  -9.1028  -9.0892  -9.0763  -9.0561  -9.0002  -8.9838  -8.9562
    -8.9007  -8.8872  -8.8726  -8.8644  -8.8495  -8.8384  -8.8307  -8.8100
    -8.7996  -8.7792  -8.7541  -8.7456  -8.7409  -8.7237  -8.7117  -8.7040
    -8.6603  -8.6125  -8.5598  -8.4269   2.1410   2.1507   2.1576   2.1699
     2.1831   2.1892   2.2162   2.2293   2.2488   2.2694   2.2834   2.3112
     2.3535   2.3660   2.3763   2.3904   2.4014   2.4112   2.4339   2.4650
     2.4719   2.4957   2.5176   2.5306   2.5376   2.5427   2.5569   2.5587
     2.5734   2.5806   2.5961   2.6282   2.6430   2.6502   2.6663   2.6756
     2.6924   2.6947   2.7118   2.7269   2.7288   2.7532   2.7650   2.7824
     2.7882   2.7911   2.7975   2.8150   2.8249   2.8404   2.8448   2.8503
     2.8611   2.8732   2.8761   2.8933   2.8970   2.9031   2.9106   2.9174
     2.9282   2.9379   2.9467   2.9557   2.9685   2.9750   2.9804   2.9996
     3.0074   3.0135   3.0169   3.0254   3.0359   3.0445   3.0541   3.0589
     3.0729   3.0797   3.0932   3.1019   3.1146   3.1282   3.1389   3.2090
     3.2368   3.2414   3.2690   3.2767   3.2919   3.3266   3.3598   3.3650
     3.3988   3.4213   3.4385   3.4835   3.4898   3.5257   3.5413   3.5857
     3.6024   3.6171   3.6242   3.6434   3.6546   3.6652   3.6760   3.6957
     3.7079   3.7211   3.7268   3.7330   3.7382   3.7436   3.7504   3.7586
     3.7656   3.7675   3.7730   3.7858   3.7886   3.7960   3.8018   3.8101
     3.8249   3.8274   3.8379   3.8484   3.8633   3.8709   3.8787   3.8812
     3.8895   3.8954   3.8978   3.9044   3.9114   3.9210   3.9241   3.9294
     3.9473   3.9553   3.9599   3.9709   3.9820   3.9948   4.0131   4.0283
     4.0451   4.0608   4.3031   4.3585   4.3744   4.3891   4.4191   4.4500
     4.4646   4.4822   4.4935   4.5242   4.5689   4.5930   4.6144   4.6209
     4.6513   4.6720   4.7005   4.7197   4.7700   4.7934   4.8408   4.8513
     4.8635   4.9064   4.9177   4.9855   5.0341   5.0708   5.0918   5.1742
     5.2041   5.2479   5.2653   5.2920   5.3448   5.3654   5.3996   5.4414
     5.6965   5.7370   5.7983   5.8400   5.8534   5.8809   5.9236   5.9415
     5.9842   5.9967   6.0175   6.0348   6.0709   6.1097   6.1919   6.2036
     6.3155   6.3615   6.3903   6.4031   6.4235   6.4582   6.4704   6.4961
     6.5102   6.5162   6.5368   6.5417   6.5588   6.5997   6.6083   6.6237
     6.6399   6.6747   6.6842   6.6973   6.8469   7.0177   7.0420   7.1113
     7.1292   7.1470   7.1748   7.2400   7.2467   7.2751   7.2903   7.3042
     7.3205   7.3359   7.3508   7.3750   7.3877   7.3968   7.4055   7.4134
     7.4217   7.4332   7.4401   7.4459   7.4564   7.4643   7.4781   7.4973
     7.5432   7.5488   7.9067   7.9135   8.0674   8.0721

     occupation numbers 
     1.0000   1.0000   1.0000   1.0000   1.0000   1.0000   1.0000   1.0000
     1.0000   1.0000   1.0000   1.0000   1.0000   1.0000   1.0000   1.0000
     1.0000   1.0000   1.0000   1.0000   1.0000   1.0000   1.0000   1.0000
     1.0000   1.0000   1.0000   1.0000   1.0000   1.0000   1.0000   1.0000
     1.0000   1.0000   1.0000   1.0000   1.0000   1.0000   1.0000   1.0000
     1.0000   1.0000   1.0000   1.0000   1.0000   1.0000   1.0000   1.0000
     1.0000   1.0000   1.0000   1.0000   1.0000   1.0000   1.0000   1.0000
     1.0000   1.0000   1.0000   1.0000   1.0000   1.0000   1.0000   1.0000
     1.0000   1.0000   1.0000   1.0000   1.0000   1.0000   1.0000   1.0000
     1.0000   1.0000   1.0000   1.0000   1.0000   1.0000   1.0000   1.0000
     1.0000   1.0000   1.0000   1.0000   1.0000   1.0000   1.0000   1.0000
     1.0000   1.0000   1.0000   1.0000   1.0000   1.0000   1.0000   1.0000
     1.0000   1.0000   1.0000   1.0000   1.0000   1.0000   1.0000   1.0000
     1.0000   1.0000   1.0000   1.0000   1.0000   1.0000   1.0000   1.0000
     1.0000   1.0000   1.0000   1.0000   1.0000   1.0000   1.0000   1.0000
     1.0000   1.0000   1.0000   1.0000   1.0000   1.0000   1.0000   1.0000
     1.0000   1.0000   1.0000   1.0000   1.0000   1.0000   1.0000   1.0000
     1.0000   1.0000   1.0000   1.0000   1.0000   1.0000   1.0000   1.0000
     1.0000   1.0000   1.0000   1.0000   1.0000   1.0000   1.0000   1.0000
     1.0000   1.0000   1.0000   1.0000   1.0000   1.0000   1.0000   1.0000
     1.0000   1.0000   1.0000   1.0000   1.0000   1.0000   1.0000   1.0000
     1.0000   1.0000   1.0000   1.0000   1.0000   1.0000   1.0000   1.0000
     1.0000   1.0000   1.0000   1.0000   1.0000   1.0000   1.0000   1.0000
     1.0000   1.0000   1.0000   1.0000   1.0000   1.0000   1.0000   1.0000
     1.0000   1.0000   1.0000   1.0000   1.0000   1.0000   1.0000   1.0000
     1.0000   1.0000   1.0000   1.0000   1.0000   1.0000   1.0000   1.0000
     1.0000   1.0000   1.0000   1.0000   1.0000   1.0000   1.0000   1.0000
     1.0000   1.0000   1.0000   1.0000   1.0000   1.0000   1.0000   1.0000
     1.0000   1.0000   1.0000   1.0000   1.0000   1.0000   1.0000   1.0000
     1.0000   1.0000   1.0000   1.0000   1.0000   1.0000   1.0000   1.0000
     1.0000   1.0000   1.0000   1.0000   1.0000   1.0000   1.0000   1.0000
     1.0000   1.0000   1.0000   1.0000   1.0000   1.0000   1.0000   1.0000
     1.0000   1.0000   1.0000   1.0000   1.0000   1.0000   1.0000   1.0000
     1.0000   1.0000   1.0000   1.0000   1.0000   1.0000   1.0000   1.0000
     1.0000   1.0000   1.0000   1.0000   1.0000   1.0000   1.0000   1.0000
     1.0000   1.0000   1.0000   1.0000   1.0000   1.0000   1.0000   1.0000
     1.0000   1.0000   1.0000   1.0000   1.0000   1.0000   1.0000   1.0000
     1.0000   1.0000   1.0000   1.0000   1.0000   1.0000   1.0000   1.0000
     1.0000   1.0000   1.0000   1.0000   1.0000   1.0000   1.0000   1.0000
     1.0000   1.0000   1.0000   1.0000   1.0000   1.0000   1.0000   1.0000
     1.0000   1.0000   1.0000   1.0000   1.0000   1.0000   1.0000   1.0000
     1.0000   1.0000   1.0000   1.0000   1.0000   1.0000   1.0000   1.0000
     1.0000   1.0000   1.0000   1.0000   1.0000   1.0000   1.0000   1.0000
     1.0000   1.0000   1.0000   1.0000   1.0000   1.0000   1.0000   1.0000
     1.0000   1.0000   1.0000   1.0000   1.0000   1.0000   1.0000   1.0000
     1.0000   1.0000   1.0000   1.0000   1.0000   1.0000   1.0000   1.0000
     1.0000   1.0000   1.0000   1.0000   1.0000   1.0000   1.0000   1.0000
     1.0000   1.0000   1.0000   1.0000   1.0000   1.0000   1.0000   1.0000
     1.0000   1.0000   1.0000   1.0000   1.0000   1.0000   1.0000   1.0000
     1.0000   1.0000   1.0000   1.0000   1.0000   1.0000   1.0000   1.0000
     1.0000   1.0000   1.0000   1.0000   1.0000   1.0000   1.0000   1.0000
     1.0000   1.0000   1.0000   1.0000   1.0000   1.0000   1.0000   1.0000
     1.0000   1.0000   1.0000   1.0000   1.0000   1.0000   1.0000   1.0000
     1.0000   1.0000   1.0000   1.0000   1.0000   1.0000   1.0000   1.0000
     1.0000   1.0000   1.0000   1.0000   1.0000   1.0000

          k =-0.0000 0.0000 0.5338 ( 45181 PWs)   bands (ev):

  -114.8813-114.8797-114.8754-114.8750-114.8736-114.8731-114.8731-114.8724
  -114.8717-114.8712-114.8692-114.8688-114.8668-114.8665-114.8664-114.8648
  -114.8644-114.8644-114.8641-114.8633-114.8592-114.8591-114.8585-114.8579
  -114.8578-114.8574-114.8567-114.8566-114.8553-114.8478 -69.2421 -69.2388
   -69.2382 -69.2381 -69.2347 -69.2340 -69.2335 -69.2331 -69.2330 -69.2327
   -69.2327 -69.2322 -69.2321 -69.2320 -69.2315 -69.2311 -69.2311 -69.2304
   -69.2303 -69.2302 -69.2292 -69.2291 -69.2290 -69.2290 -69.2287 -69.2282
   -69.2274 -69.2269 -69.2268 -69.2265 -69.2264 -69.2263 -69.2262 -69.2252
   -69.2251 -69.2249 -69.2244 -69.2243 -69.2241 -69.2240 -69.2234 -69.2231
   -69.2230 -69.2228 -69.2228 -69.2225 -69.2225 -69.2221 -69.2217 -69.2216
   -69.2210 -69.2209 -69.2208 -69.2202 -69.2201 -69.2200 -69.2199 -69.2193
   -69.2192 -69.2189 -69.2186 -69.2184 -69.2181 -69.2177 -69.2174 -69.2173
   -69.2170 -69.2168 -69.2167 -69.2160 -69.2156 -69.2155 -69.2152 -69.2148
   -69.2138 -69.2138 -69.2132 -69.2130 -69.2128 -69.2127 -69.2123 -69.2117
   -69.2117 -69.2112 -69.2098 -69.2091 -69.2088 -69.2084 -69.2045 -69.2009
   -64.3466 -64.3400 -64.3324 -64.3318 -64.3214 -64.3189 -31.3368 -31.3318
   -31.3307 -31.3304 -31.3271 -31.3266 -31.3246 -31.3230 -31.3214 -31.3198
   -31.3172 -31.3143 -31.3125 -31.3070 -31.3062 -31.3059 -31.3026 -31.3000
    -9.6268  -9.5224  -9.2042  -9.2016  -9.1919  -9.1592  -9.1494  -9.1415
    -9.1407  -9.1028  -9.0892  -9.0763  -9.0561  -9.0002  -8.9838  -8.9562
    -8.9007  -8.8872  -8.8726  -8.8644  -8.8495  -8.8384  -8.8307  -8.8100
    -8.7996  -8.7792  -8.7541  -8.7456  -8.7409  -8.7237  -8.7117  -8.7040
    -8.6603  -8.6125  -8.5598  -8.4269   2.1410   2.1507   2.1576   2.1699
     2.1831   2.1892   2.2162   2.2293   2.2488   2.2694   2.2834   2.3112
     2.3535   2.3660   2.3763   2.3904   2.4014   2.4112   2.4339   2.4650
     2.4719   2.4957   2.5176   2.5306   2.5376   2.5427   2.5569   2.5587
     2.5734   2.5806   2.5961   2.6282   2.6430   2.6502   2.6663   2.6756
     2.6924   2.6947   2.7118   2.7269   2.7288   2.7532   2.7650   2.7824
     2.7882   2.7911   2.7975   2.8150   2.8249   2.8404   2.8448   2.8503
     2.8611   2.8732   2.8761   2.8933   2.8970   2.9031   2.9106   2.9174
     2.9282   2.9379   2.9467   2.9557   2.9685   2.9750   2.9804   2.9996
     3.0074   3.0135   3.0169   3.0254   3.0359   3.0445   3.0541   3.0589
     3.0729   3.0797   3.0932   3.1019   3.1146   3.1282   3.1389   3.2090
     3.2368   3.2414   3.2690   3.2767   3.2919   3.3266   3.3598   3.3650
     3.3988   3.4213   3.4385   3.4835   3.4898   3.5257   3.5413   3.5857
     3.6024   3.6171   3.6242   3.6434   3.6546   3.6652   3.6760   3.6957
     3.7079   3.7211   3.7268   3.7330   3.7382   3.7436   3.7504   3.7586
     3.7656   3.7675   3.7730   3.7858   3.7886   3.7960   3.8018   3.8101
     3.8249   3.8274   3.8379   3.8484   3.8633   3.8709   3.8787   3.8812
     3.8895   3.8954   3.8978   3.9044   3.9114   3.9210   3.9241   3.9294
     3.9473   3.9553   3.9599   3.9709   3.9820   3.9948   4.0131   4.0283
     4.0451   4.0608   4.3031   4.3585   4.3744   4.3891   4.4191   4.4500
     4.4646   4.4822   4.4935   4.5242   4.5689   4.5930   4.6144   4.6209
     4.6513   4.6720   4.7005   4.7197   4.7700   4.7934   4.8408   4.8513
     4.8635   4.9064   4.9177   4.9855   5.0341   5.0708   5.0918   5.1742
     5.2041   5.2479   5.2653   5.2920   5.3448   5.3654   5.3996   5.4414
     5.6965   5.7370   5.7983   5.8400   5.8534   5.8809   5.9236   5.9415
     5.9842   5.9967   6.0175   6.0348   6.0709   6.1097   6.1919   6.2036
     6.3155   6.3615   6.3903   6.4031   6.4235   6.4582   6.4704   6.4961
     6.5102   6.5162   6.5368   6.5417   6.5588   6.5997   6.6083   6.6237
     6.6399   6.6747   6.6842   6.6973   6.8469   7.0177   7.0420   7.1113
     7.1292   7.1470   7.1748   7.2400   7.2467   7.2751   7.2903   7.3042
     7.3205   7.3359   7.3508   7.3750   7.3877   7.3968   7.4055   7.4134
     7.4217   7.4332   7.4401   7.4459   7.4564   7.4643   7.4781   7.4973
     7.5432   7.5488   7.9067   7.9135   8.0674   8.0721

     occupation numbers 
     1.0000   1.0000   1.0000   1.0000   1.0000   1.0000   1.0000   1.0000
     1.0000   1.0000   1.0000   1.0000   1.0000   1.0000   1.0000   1.0000
     1.0000   1.0000   1.0000   1.0000   1.0000   1.0000   1.0000   1.0000
     1.0000   1.0000   1.0000   1.0000   1.0000   1.0000   1.0000   1.0000
     1.0000   1.0000   1.0000   1.0000   1.0000   1.0000   1.0000   1.0000
     1.0000   1.0000   1.0000   1.0000   1.0000   1.0000   1.0000   1.0000
     1.0000   1.0000   1.0000   1.0000   1.0000   1.0000   1.0000   1.0000
     1.0000   1.0000   1.0000   1.0000   1.0000   1.0000   1.0000   1.0000
     1.0000   1.0000   1.0000   1.0000   1.0000   1.0000   1.0000   1.0000
     1.0000   1.0000   1.0000   1.0000   1.0000   1.0000   1.0000   1.0000
     1.0000   1.0000   1.0000   1.0000   1.0000   1.0000   1.0000   1.0000
     1.0000   1.0000   1.0000   1.0000   1.0000   1.0000   1.0000   1.0000
     1.0000   1.0000   1.0000   1.0000   1.0000   1.0000   1.0000   1.0000
     1.0000   1.0000   1.0000   1.0000   1.0000   1.0000   1.0000   1.0000
     1.0000   1.0000   1.0000   1.0000   1.0000   1.0000   1.0000   1.0000
     1.0000   1.0000   1.0000   1.0000   1.0000   1.0000   1.0000   1.0000
     1.0000   1.0000   1.0000   1.0000   1.0000   1.0000   1.0000   1.0000
     1.0000   1.0000   1.0000   1.0000   1.0000   1.0000   1.0000   1.0000
     1.0000   1.0000   1.0000   1.0000   1.0000   1.0000   1.0000   1.0000
     1.0000   1.0000   1.0000   1.0000   1.0000   1.0000   1.0000   1.0000
     1.0000   1.0000   1.0000   1.0000   1.0000   1.0000   1.0000   1.0000
     1.0000   1.0000   1.0000   1.0000   1.0000   1.0000   1.0000   1.0000
     1.0000   1.0000   1.0000   1.0000   1.0000   1.0000   1.0000   1.0000
     1.0000   1.0000   1.0000   1.0000   1.0000   1.0000   1.0000   1.0000
     1.0000   1.0000   1.0000   1.0000   1.0000   1.0000   1.0000   1.0000
     1.0000   1.0000   1.0000   1.0000   1.0000   1.0000   1.0000   1.0000
     1.0000   1.0000   1.0000   1.0000   1.0000   1.0000   1.0000   1.0000
     1.0000   1.0000   1.0000   1.0000   1.0000   1.0000   1.0000   1.0000
     1.0000   1.0000   1.0000   1.0000   1.0000   1.0000   1.0000   1.0000
     1.0000   1.0000   1.0000   1.0000   1.0000   1.0000   1.0000   1.0000
     1.0000   1.0000   1.0000   1.0000   1.0000   1.0000   1.0000   1.0000
     1.0000   1.0000   1.0000   1.0000   1.0000   1.0000   1.0000   1.0000
     1.0000   1.0000   1.0000   1.0000   1.0000   1.0000   1.0000   1.0000
     1.0000   1.0000   1.0000   1.0000   1.0000   1.0000   1.0000   1.0000
     1.0000   1.0000   1.0000   1.0000   1.0000   1.0000   1.0000   1.0000
     1.0000   1.0000   1.0000   1.0000   1.0000   1.0000   1.0000   1.0000
     1.0000   1.0000   1.0000   1.0000   1.0000   1.0000   1.0000   1.0000
     1.0000   1.0000   1.0000   1.0000   1.0000   1.0000   1.0000   1.0000
     1.0000   1.0000   1.0000   1.0000   1.0000   1.0000   1.0000   1.0000
     1.0000   1.0000   1.0000   1.0000   1.0000   1.0000   1.0000   1.0000
     1.0000   1.0000   1.0000   1.0000   1.0000   1.0000   1.0000   1.0000
     1.0000   1.0000   1.0000   1.0000   1.0000   1.0000   1.0000   1.0000
     1.0000   1.0000   1.0000   1.0000   1.0000   1.0000   1.0000   1.0000
     1.0000   1.0000   1.0000   1.0000   1.0000   1.0000   1.0000   1.0000
     1.0000   1.0000   1.0000   1.0000   1.0000   1.0000   1.0000   1.0000
     1.0000   1.0000   1.0000   1.0000   1.0000   1.0000   1.0000   1.0000
     1.0000   1.0000   1.0000   1.0000   1.0000   1.0000   1.0000   1.0000
     1.0000   1.0000   1.0000   1.0000   1.0000   1.0000   1.0000   1.0000
     1.0000   1.0000   1.0000   1.0000   1.0000   1.0000   1.0000   1.0000
     1.0000   1.0000   1.0000   1.0000   1.0000   1.0000   1.0000   1.0000
     1.0000   1.0000   1.0000   1.0000   1.0000   1.0000   1.0000   1.0000
     1.0000   1.0000   1.0000   1.0000   1.0000   1.0000   1.0000   1.0000
     1.0000   1.0000   1.0000   1.0000   1.0000   1.0000   1.0000   1.0000
     1.0000   1.0000   1.0000   1.0000   1.0000   1.0000   1.0000   1.0000
     1.0000   1.0000   1.0000   1.0000   1.0000   1.0000

          k =-0.0000 0.0000 0.6672 ( 45150 PWs)   bands (ev):

  -114.8813-114.8797-114.8754-114.8750-114.8736-114.8731-114.8731-114.8724
  -114.8717-114.8712-114.8692-114.8688-114.8668-114.8665-114.8664-114.8648
  -114.8644-114.8644-114.8641-114.8633-114.8592-114.8591-114.8585-114.8579
  -114.8578-114.8574-114.8567-114.8566-114.8553-114.8478 -69.2421 -69.2388
   -69.2382 -69.2381 -69.2347 -69.2340 -69.2335 -69.2331 -69.2330 -69.2327
   -69.2327 -69.2322 -69.2321 -69.2320 -69.2315 -69.2311 -69.2311 -69.2304
   -69.2303 -69.2302 -69.2292 -69.2291 -69.2290 -69.2290 -69.2287 -69.2282
   -69.2274 -69.2269 -69.2268 -69.2265 -69.2264 -69.2263 -69.2262 -69.2252
   -69.2251 -69.2249 -69.2244 -69.2243 -69.2241 -69.2240 -69.2234 -69.2231
   -69.2230 -69.2228 -69.2228 -69.2225 -69.2225 -69.2221 -69.2217 -69.2216
   -69.2210 -69.2209 -69.2208 -69.2202 -69.2201 -69.2200 -69.2199 -69.2193
   -69.2192 -69.2189 -69.2186 -69.2184 -69.2181 -69.2177 -69.2174 -69.2173
   -69.2170 -69.2168 -69.2167 -69.2160 -69.2156 -69.2155 -69.2152 -69.2148
   -69.2138 -69.2138 -69.2132 -69.2130 -69.2128 -69.2127 -69.2123 -69.2117
   -69.2117 -69.2112 -69.2098 -69.2091 -69.2088 -69.2084 -69.2045 -69.2009
   -64.3466 -64.3400 -64.3324 -64.3318 -64.3214 -64.3189 -31.3368 -31.3318
[...]
     2.2251   2.2403   2.2472   2.2552   2.2630   2.2851   2.2921   2.3074
     2.3346   2.3450   2.3502   2.3670   2.3779   2.3835   2.4040   2.4207
     2.4460   2.4590   2.4685   2.4781   2.5014   2.5559   2.5642   2.5952
     2.6020   2.6191   2.6327   2.6448   2.6583   2.6689   2.6809   2.6882
     2.6934   2.7042   2.7148   2.7165   2.7255   2.7372   2.7413   2.7582
     2.7706   2.7789   2.7871   2.7911   2.7939   2.7970   2.8060   2.8242
     2.8315   2.8481   2.8541   2.8691   2.8768   2.8809   2.8916   2.8989
     2.9118   2.9251   2.9279   2.9352   2.9486   2.9597   2.9734   2.9953
     3.0002   3.0183   3.0271   3.0342   3.0386   3.0477   3.0513   3.0693
     3.0887   3.0973   3.1154   3.1453   3.1659   3.1827   3.1967   3.2100
     3.2253   3.2643   3.2688   3.2925   3.3142   3.3429   3.3590   3.3934
     3.4065   3.4253   3.4419   3.4802   3.4911   3.5223   3.5415   3.5751
     3.5818   3.6035   3.6217   3.6419   3.6475   3.6742   3.6824   3.6949
     3.7076   3.7207   3.7327   3.7396   3.7436   3.7632   3.7723   3.7733
     3.7823   3.7888   3.7995   3.8026   3.8191   3.8258   3.8340   3.8375
     3.8443   3.8528   3.8585   3.8659   3.8702   3.8796   3.8860   3.8864
     3.8891   3.8983   3.9096   3.9198   3.9238   3.9323   3.9357   3.9493
     3.9500   3.9754   3.9833   3.9888   4.0016   4.0076   4.0323   4.0403
     4.0508   4.0770   4.0942   4.1206   4.1892   4.2158   4.2693   4.2855
     4.3009   4.3197   4.3719   4.3894   4.4228   4.4784   4.5197   4.5553
     4.6139   4.6251   4.6489   4.7167   4.7258   4.7760   4.7841   4.8698
     4.9035   4.9981   5.1785   5.2138   5.2579   5.3112   5.3211   5.3629
     5.4151   5.4518   5.4816   5.5246   5.5509   5.5761   5.5970   5.6272
     5.6536   5.6802   5.7337   5.7903   5.8175   5.8443   5.9291   5.9564
     6.0159   6.0362   6.0802   6.0921   6.1033   6.1427   6.1686   6.2080
     6.3084   6.4147   6.4508   6.4889   6.5237   6.5918   6.6060   6.6189
     6.6430   6.6764   6.6820   6.7059   6.7209   6.7792   6.7991   6.8395
     6.8485   6.8628   6.8671   6.8746   6.8898   6.9155   6.9261   6.9348
     6.9399   6.9485   6.9635   6.9822   6.9928   7.0020   7.0078   7.0186
     7.0275   7.0385   7.0507   7.0920   7.1255   7.1707   7.1965   7.2249
     7.2282   7.2690   7.3619   7.4598   7.4738   7.4801   7.4956   7.5013
     7.5364   7.5554   7.8224   7.8877   7.9056   7.9534

     occupation numbers 
     1.0000   1.0000   1.0000   1.0000   1.0000   1.0000   1.0000   1.0000
     1.0000   1.0000   1.0000   1.0000   1.0000   1.0000   1.0000   1.0000
     1.0000   1.0000   1.0000   1.0000   1.0000   1.0000   1.0000   1.0000
     1.0000   1.0000   1.0000   1.0000   1.0000   1.0000   1.0000   1.0000
     1.0000   1.0000   1.0000   1.0000   1.0000   1.0000   1.0000   1.0000
     1.0000   1.0000   1.0000   1.0000   1.0000   1.0000   1.0000   1.0000
     1.0000   1.0000   1.0000   1.0000   1.0000   1.0000   1.0000   1.0000
     1.0000   1.0000   1.0000   1.0000   1.0000   1.0000   1.0000   1.0000
     1.0000   1.0000   1.0000   1.0000   1.0000   1.0000   1.0000   1.0000
     1.0000   1.0000   1.0000   1.0000   1.0000   1.0000   1.0000   1.0000
     1.0000   1.0000   1.0000   1.0000   1.0000   1.0000   1.0000   1.0000
     1.0000   1.0000   1.0000   1.0000   1.0000   1.0000   1.0000   1.0000
     1.0000   1.0000   1.0000   1.0000   1.0000   1.0000   1.0000   1.0000
     1.0000   1.0000   1.0000   1.0000   1.0000   1.0000   1.0000   1.0000
     1.0000   1.0000   1.0000   1.0000   1.0000   1.0000   1.0000   1.0000
     1.0000   1.0000   1.0000   1.0000   1.0000   1.0000   1.0000   1.0000
     1.0000   1.0000   1.0000   1.0000   1.0000   1.0000   1.0000   1.0000
     1.0000   1.0000   1.0000   1.0000   1.0000   1.0000   1.0000   1.0000
     1.0000   1.0000   1.0000   1.0000   1.0000   1.0000   1.0000   1.0000
     1.0000   1.0000   1.0000   1.0000   1.0000   1.0000   1.0000   1.0000
     1.0000   1.0000   1.0000   1.0000   1.0000   1.0000   1.0000   1.0000
     1.0000   1.0000   1.0000   1.0000   1.0000   1.0000   1.0000   1.0000
     1.0000   1.0000   1.0000   1.0000   1.0000   1.0000   1.0000   1.0000
     1.0000   1.0000   1.0000   1.0000   1.0000   1.0000   1.0000   1.0000
     1.0000   1.0000   1.0000   1.0000   1.0000   1.0000   1.0000   1.0000
     1.0000   1.0000   1.0000   1.0000   1.0000   1.0000   1.0000   1.0000
     1.0000   1.0000   1.0000   1.0000   1.0000   1.0000   1.0000   1.0000
     1.0000   1.0000   1.0000   1.0000   1.0000   1.0000   1.0000   1.0000
     1.0000   1.0000   1.0000   1.0000   1.0000   1.0000   1.0000   1.0000
     1.0000   1.0000   1.0000   1.0000   1.0000   1.0000   1.0000   1.0000
     1.0000   1.0000   1.0000   1.0000   1.0000   1.0000   1.0000   1.0000
     1.0000   1.0000   1.0000   1.0000   1.0000   1.0000   1.0000   1.0000
     1.0000   1.0000   1.0000   1.0000   1.0000   1.0000   1.0000   1.0000
     1.0000   1.0000   1.0000   1.0000   1.0000   1.0000   1.0000   1.0000
     1.0000   1.0000   1.0000   1.0000   1.0000   1.0000   1.0000   1.0000
     1.0000   1.0000   1.0000   1.0000   1.0000   1.0000   1.0000   1.0000
     1.0000   1.0000   1.0000   1.0000   1.0000   1.0000   1.0000   1.0000
     1.0000   1.0000   1.0000   1.0000   1.0000   1.0000   1.0000   1.0000
     1.0000   1.0000   1.0000   1.0000   1.0000   1.0000   1.0000   1.0000
     1.0000   1.0000   1.0000   1.0000   1.0000   1.0000   1.0000   1.0000
     1.0000   1.0000   1.0000   1.0000   1.0000   1.0000   1.0000   1.0000
     1.0000   1.0000   1.0000   1.0000   1.0000   1.0000   1.0000   1.0000
     1.0000   1.0000   1.0000   1.0000   1.0000   1.0000   1.0000   1.0000
     1.0000   1.0000   1.0000   1.0000   1.0000   1.0000   1.0000   1.0000
     1.0000   1.0000   1.0000   1.0000   1.0000   1.0000   1.0000   1.0000
     1.0000   1.0000   1.0000   1.0000   1.0000   1.0000   1.0000   1.0000
     1.0000   1.0000   1.0000   1.0000   1.0000   1.0000   1.0000   1.0000
     1.0000   1.0000   1.0000   1.0000   1.0000   1.0000   1.0000   1.0000
     1.0000   1.0000   1.0000   1.0000   1.0000   1.0000   1.0000   1.0000
     1.0000   1.0000   1.0000   1.0000   1.0000   1.0000   1.0000   1.0000
     1.0000   1.0000   1.0000   1.0000   1.0000   1.0000   1.0000   1.0000
     1.0000   1.0000   1.0000   1.0000   1.0000   1.0000   1.0000   1.0000
     1.0000   1.0000   1.0000   1.0000   1.0000   1.0000   1.0000   1.0000
     1.0000   1.0000   1.0000   1.0000   1.0000   1.0000   1.0000   1.0000
     1.0000   1.0000   1.0000   1.0000   1.0000   1.0000

     highest occupied level (ev):     8.1149



               ==================================================
                            POLARIZATION CALCULATION
                         !!! NOT THOROUGHLY TESTED !!!
               --------------------------------------------------


                     K-POINTS STRINGS USED IN CALCULATIONS
                     ~~~~~~~~~~~~~~~~~~~~~~~~~~~~~~~~~~~~~

       G-vector along string (2 pi/a): -0.00002  0.00001  0.93409
       Modulus of the vector (1/bohr):  0.31937
       Number of k-points per string:   8
       Number of different strings  :  10


                               IONIC POLARIZATION
                               ~~~~~~~~~~~~~~~~~~

        Note: (mod 1) means that the phases (angles ranging from
        -pi to pi) have been mapped to the interval [-1/2,+1/2) by
        dividing by 2*pi; (mod 2) refers to the interval [-1,+1)

  ============================================================================
    Ion    Species    Charge              Position                Phase
  ----------------------------------------------------------------------------
     1        Zn      20.000       0.1666  0.0975  0.2072    -0.12906 (mod 2)
     2        Zn      20.000       0.4998  0.0953  0.2068    -0.13694 (mod 2)
     3        Zn      20.000       0.8332  0.0975  0.2055    -0.16122 (mod 2)
     4        Zn      20.000       0.0000  0.3848  0.2064    -0.14441 (mod 2)
     5        Zn      20.000       0.3333  0.3848  0.2079    -0.11662 (mod 2)
     6        Zn      20.000       0.6669  0.3849  0.2077    -0.11990 (mod 2)
     7        Zn      20.000      -0.1647  0.6733  0.2069    -0.13445 (mod 2)
     8        Zn      20.000       0.1647  0.6733  0.2071    -0.13135 (mod 2)
     9        Zn      20.000       0.5002  0.6727  0.2048    -0.17388 (mod 2)
    10        Zn      20.000       0.1658  0.0951  0.7429    -0.12106 (mod 2)
    11        Zn      20.000       0.4994  0.0978  0.7429    -0.12138 (mod 2)
    12        Zn      20.000       0.3340  0.3848  0.7435    -0.10953 (mod 2)
    13        Zn      20.000       0.6660  0.3847  0.7436    -0.10811 (mod 2)
    14        Zn      20.000      -0.1689  0.6739  0.7423    -0.13194 (mod 2)
    15        Zn      20.000       0.1702  0.6740  0.7427    -0.12552 (mod 2)
    16        Zn      20.000      -0.0008  0.1929  0.4747     0.86777 (mod 2)
    17        Zn      20.000       0.3336  0.1927  0.4758     0.88940 (mod 2)
    18        Zn      20.000       0.6667  0.1924  0.4749     0.87152 (mod 2)
    19        Zn      20.000      -0.1665  0.4809  0.4754     0.88117 (mod 2)
    20        Zn      20.000       0.1667  0.4811  0.4753     0.87961 (mod 2)
    21        Zn      20.000       0.5001  0.4816  0.4746     0.86651 (mod 2)
    22        Zn      20.000      -0.3339  0.7689  0.4731     0.83910 (mod 2)
    23        Zn      20.000       0.3341  0.7697  0.4723     0.82425 (mod 2)
    24        Zn      20.000       0.0005  0.1922  1.0088     0.84693 (mod 2)
    25        Zn      20.000       0.3328  0.1930  1.0109     0.88467 (mod 2)
    26        Zn      20.000       0.6661  0.1933  1.0102     0.87213 (mod 2)
    27        Zn      20.000      -0.1668  0.4815  1.0098     0.86504 (mod 2)
    28        Zn      20.000       0.1670  0.4814  1.0103     0.87439 (mod 2)
    29        Zn      20.000       0.5002  0.4811  1.0105     0.87730 (mod 2)
    30        Zn      20.000       0.0001  0.7686  1.0087     0.84373 (mod 2)
    31        Mg      10.000       0.8325  0.0951  0.7431     0.94114 (mod 2)
    32        Mg      10.000       0.0012  0.3855  0.7438     0.94754 (mod 2)
    33        Mg      10.000       0.4998  0.6730  0.7422     0.93288 (mod 2)
    34        Mg      10.000       0.0001  0.7698  0.4770     0.45558 (mod 2)
    35        Mg      10.000      -0.3315  0.7699  1.0116    -0.55101 (mod 2)
    36        Mg      10.000       0.3319  0.7685  1.0116    -0.55106 (mod 2)
    37        O        6.000       0.1666  0.0962  0.0037     0.02071 (mod 2)
    38        O        6.000       0.4997  0.0956  0.0031     0.01759 (mod 2)
    39        O        6.000       0.8331  0.0959  0.0017     0.00943 (mod 2)
    40        O        6.000       0.0000  0.3846  0.0024     0.01373 (mod 2)
    41        O        6.000       0.3336  0.3852  0.0042     0.02375 (mod 2)
    42        O        6.000       0.6668  0.3852  0.0041     0.02308 (mod 2)
    43        O        6.000      -0.1659  0.6734  0.0036     0.02031 (mod 2)
    44        O        6.000       0.1658  0.6733  0.0039     0.02169 (mod 2)
    45        O        6.000       0.5004  0.6745  0.0011     0.00626 (mod 2)
    46        O        6.000       0.1663  0.0957  0.5385    -0.98199 (mod 2)
    47        O        6.000       0.5001  0.0963  0.5392    -0.97803 (mod 2)
    48        O        6.000       0.8331  0.0957  0.5396    -0.97587 (mod 2)
    49        O        6.000       0.0001  0.3850  0.5405    -0.97089 (mod 2)
    50        O        6.000       0.3335  0.3851  0.5394    -0.97685 (mod 2)
    51        O        6.000       0.6666  0.3849  0.5392    -0.97807 (mod 2)
    52        O        6.000      -0.1670  0.6737  0.5385    -0.98204 (mod 2)
    53        O        6.000       0.1674  0.6739  0.5385    -0.98191 (mod 2)
    54        O        6.000       0.4999  0.6738  0.5391    -0.97839 (mod 2)
    55        O        6.000      -0.0004  0.1927  0.2711    -0.48047 (mod 2)
    56        O        6.000       0.3336  0.1924  0.2718    -0.47681 (mod 2)
    57        O        6.000       0.6664  0.1923  0.2710    -0.48106 (mod 2)
    58        O        6.000      -0.1663  0.4809  0.2715    -0.47846 (mod 2)
    59        O        6.000       0.1664  0.4809  0.2715    -0.47861 (mod 2)
    60        O        6.000       0.5001  0.4812  0.2712    -0.48030 (mod 2)
    61        O        6.000      -0.3331  0.7696  0.2690    -0.49211 (mod 2)
    62        O        6.000       0.0000  0.7700  0.2738    -0.46527 (mod 2)
    63        O        6.000       0.3333  0.7699  0.2684    -0.49591 (mod 2)
    64        O        6.000      -0.0010  0.1927  0.8050     0.51194 (mod 2)
    65        O        6.000       0.3323  0.1922  0.8070     0.52305 (mod 2)
    66        O        6.000       0.6668  0.1923  0.8066     0.52047 (mod 2)
    67        O        6.000      -0.1664  0.4810  0.8062     0.51819 (mod 2)
    68        O        6.000       0.1674  0.4815  0.8067     0.52141 (mod 2)
    69        O        6.000       0.5001  0.4813  0.8066     0.52080 (mod 2)
    70        O        6.000      -0.3345  0.7693  0.8084     0.53071 (mod 2)
    71        O        6.000       0.0004  0.7694  0.8043     0.50786 (mod 2)
    72        O        6.000       0.3351  0.7701  0.8085     0.53118 (mod 2)
  ----------------------------------------------------------------------------
                                               IONIC PHASE:   0.90231 (mod 2)
  ============================================================================


                            ELECTRONIC POLARIZATION
                            ~~~~~~~~~~~~~~~~~~~~~~~

        Note: (mod 1) means that the phases (angles ranging from
        -pi to pi) have been mapped to the interval [-1/2,+1/2) by
        dividing by 2*pi; (mod 2) refers to the interval [-1,+1)

  ============================================================================
   Spin    String     Weight      First k-point in string         Phase
  ----------------------------------------------------------------------------
    up        1      0.062500      0.0000  0.0000  0.0000     0.41706 (mod 1)
    up        2      0.125000     -0.0000  0.2887  0.0000     0.41076 (mod 1)
    up        3      0.062500      0.0000 -0.5774 -0.0000     0.40729 (mod 1)
    up        4      0.125000      0.2500  0.1443 -0.0000     0.41068 (mod 1)
    up        5      0.125000      0.2500  0.4330  0.0000     0.40720 (mod 1)
    up        6      0.125000      0.2500 -0.4330 -0.0000     0.40719 (mod 1)
    up        7      0.125000      0.2500 -0.1443 -0.0000     0.41066 (mod 1)
    up        8      0.062500     -0.5000 -0.2887  0.0000     0.40719 (mod 1)
    up        9      0.125000     -0.5000  0.0000  0.0000     0.40715 (mod 1)
    up       10      0.062500     -0.5000 -0.8661 -0.0000     0.40717 (mod 1)
  ----------------------------------------------------------------------------
   down       1      0.062500      0.0000  0.0000  0.0000     0.41706 (mod 1)
   down       2      0.125000     -0.0000  0.2887  0.0000     0.41076 (mod 1)
   down       3      0.062500      0.0000 -0.5774 -0.0000     0.40729 (mod 1)
   down       4      0.125000      0.2500  0.1443 -0.0000     0.41068 (mod 1)
   down       5      0.125000      0.2500  0.4330  0.0000     0.40720 (mod 1)
   down       6      0.125000      0.2500 -0.4330 -0.0000     0.40719 (mod 1)
   down       7      0.125000      0.2500 -0.1443 -0.0000     0.41066 (mod 1)
   down       8      0.062500     -0.5000 -0.2887  0.0000     0.40719 (mod 1)
   down       9      0.125000     -0.5000  0.0000  0.0000     0.40715 (mod 1)
   down      10      0.062500     -0.5000 -0.8661 -0.0000     0.40717 (mod 1)
  ----------------------------------------------------------------------------
                                        Average phase (up):   0.40913 (mod 1)
                                      Average phase (down):   0.40913 (mod 1)
                                          ELECTRONIC PHASE:   0.81825 (mod 2)
  ============================================================================


                               SUMMARY OF PHASES
                               ~~~~~~~~~~~~~~~~~

                          Ionic Phase:  0.90231 (mod 2)
                     Electronic Phase:  0.81825 (mod 2)
                          TOTAL PHASE:  1.72056 (mod 2)


                             VALUES OF POLARIZATION
                             ~~~~~~~~~~~~~~~~~~~~~~

        The calculation of phases done along the direction of vector 3
        of the reciprocal lattice gives the following contribution to
        the polarization vector (in different units, and being Omega
        the volume of the unit cell):

           P =  33.8498460  (mod  39.3473832)  (e/Omega).bohr

           P =   0.0058831  (mod   0.0068386)  e/bohr^2

           P =   0.3363465  (mod   0.3909724)  C/m^2

        The polarization direction is:  ( 0.00002 ,-0.00002 , 1.00000 )


               ==================================================



     Writing output data file ZnO.save/
 
     init_run     :      2.41s CPU     12.99s WALL (       1 calls)
     electrons    :   1626.08s CPU   1678.16s WALL (       1 calls)

     Called by init_run:
     wfcinit      :      0.00s CPU      0.02s WALL (       1 calls)
     wfcinit:atom :      0.05s CPU      0.20s WALL (      80 calls)
     wfcinit:wfcr :     71.57s CPU     80.51s WALL (      80 calls)
     potinit      :      0.19s CPU      1.67s WALL (       1 calls)
     hinit0       :      1.50s CPU      9.76s WALL (       1 calls)

     Called by electrons:
     c_bands      :   1137.49s CPU   1187.53s WALL (       1 calls)
     v_of_rho     :      0.15s CPU      0.95s WALL (       1 calls)
     v_h          :      0.01s CPU      0.01s WALL (       1 calls)
     v_xc         :      0.14s CPU      0.93s WALL (       1 calls)
     newd         :      0.08s CPU      0.25s WALL (       1 calls)

     Called by c_bands:
     init_us_2    :      0.65s CPU      0.75s WALL (     220 calls)
     cegterg      :   1063.54s CPU   1093.81s WALL (      80 calls)

     Called by sum_band:

     Called by *egterg:
     h_psi        :    448.86s CPU    465.74s WALL (    1222 calls)
     s_psi        :     40.16s CPU     40.20s WALL (    1222 calls)
     g_psi        :      0.36s CPU      0.36s WALL (    1062 calls)
     cdiaghg      :    347.65s CPU    355.93s WALL (    1142 calls)
     cegterg:over :     82.34s CPU     95.26s WALL (    1062 calls)
     cegterg:upda :    102.67s CPU    102.84s WALL (    1062 calls)
     cegterg:last :     95.65s CPU     95.82s WALL (     320 calls)
     cdiaghg:chol :     20.06s CPU     21.21s WALL (    1142 calls)
     cdiaghg:inve :     15.83s CPU     15.94s WALL (    1142 calls)
     cdiaghg:para :     55.30s CPU     59.52s WALL (    2284 calls)

     Called by h_psi:
     h_psi:pot    :    447.83s CPU    464.63s WALL (    1222 calls)
     h_psi:calbec :     55.56s CPU     68.80s WALL (    1222 calls)
     vloc_psi     :    351.59s CPU    354.52s WALL (    1222 calls)
     add_vuspsi   :     40.65s CPU     41.26s WALL (    1222 calls)

     General routines
     calbec       :     64.90s CPU     75.06s WALL (    1362 calls)
     fft          :      1.43s CPU      8.33s WALL (      13 calls)
     ffts         :      0.01s CPU      0.01s WALL (       1 calls)
     fftw         :    347.72s CPU    350.63s WALL (  796868 calls)
     interpolate  :      0.02s CPU      0.02s WALL (       1 calls)
 
     Parallel routines
     fft_scatt_xy :     10.35s CPU     12.86s WALL (  796882 calls)
     fft_scatt_yz :    297.24s CPU    302.38s WALL (  796882 calls)
 
     PWSCF        :  28m22.86s CPU  30m27.22s WALL

 
   This run was terminated on:  15:37:32  22Nov2021            

=------------------------------------------------------------------------------=
   JOB DONE.
=------------------------------------------------------------------------------=
