
     Program PWSCF v.6.4.1 starts on 15Jun2022 at 20:46:17 

     This program is part of the open-source Quantum ESPRESSO suite
     for quantum simulation of materials; please cite
         "P. Giannozzi et al., J. Phys.:Condens. Matter 21 395502 (2009);
         "P. Giannozzi et al., J. Phys.:Condens. Matter 29 465901 (2017);
          URL http://www.quantum-espresso.org", 
     in publications or presentations arising from this work. More details at
     http://www.quantum-espresso.org/quote

     Parallel version (MPI), running on    64 processors

     MPI processes distributed on     1 nodes
     K-points division:     npool     =       4
     R & G space division:  proc/nbgrp/npool/nimage =      16
     Waiting for input...
     Reading input from standard input
Warning: card &IONS ignored
Warning: card   UPSCALE           = 100.D0, ignored
Warning: card / ignored
Warning: card &CELL ignored
Warning: card   CELL_DYNAMICS     = 'BFGS' ignored
Warning: card   PRESS_CONV_THR    = 0.5D0 ignored
Warning: card   CELL_DOFREE = 'ALL' ignored
Warning: card / ignored

     Current dimensions of program PWSCF are:
     Max number of different atomic species (ntypx) = 10
     Max number of k-points (npk) =  40000
     Max angular momentum in pseudopotentials (lmaxx) =  3

     Subspace diagonalization in iterative solution of the eigenvalue problem:
     one sub-group per band group will be used
     scalapack distributed-memory algorithm (size of sub-group:  2*  2 procs)

 
     Parallelization info
     --------------------
     sticks:   dense  smooth     PW     G-vecs:    dense   smooth      PW
     Min         106      57     17                 4770     1855     321
     Max         107      58     18                 4775     1862     326
     Sum        1711     913    283                76369    29713    5181
 


     bravais-lattice index     =            0
     lattice parameter (alat)  =       6.4273  a.u.
     unit-cell volume          =     307.3502 (a.u.)^3
     number of atoms/cell      =            4
     number of atomic types    =            2
     number of electrons       =        52.00
     number of Kohn-Sham states=           26
     kinetic-energy cutoff     =      80.0000  Ry
     charge density cutoff     =     600.0000  Ry
     convergence threshold     =      1.0E-06
     mixing beta               =       0.5000
     number of iterations used =            8  plain     mixing
     Exchange-correlation      = SLA  PW   PSX  PSC ( 1  4 10  8 0 0)
     Using LIBXC version       =    4   3   4

     celldm(1)=   6.427288  celldm(2)=   0.000000  celldm(3)=   0.000000
     celldm(4)=   0.000000  celldm(5)=   0.000000  celldm(6)=   0.000000

     crystal axes: (cart. coord. in units of alat)
               a(1) = (   1.000000   0.000000   0.000000 )  
               a(2) = (  -0.500000   0.866025  -0.000000 )  
               a(3) = (   0.000000  -0.000000   1.336656 )  

     reciprocal axes: (cart. coord. in units 2 pi/alat)
               b(1) = (  1.000000  0.577350 -0.000000 )  
               b(2) = ( -0.000000  1.154700  0.000000 )  
               b(3) = ( -0.000000  0.000000  0.748136 )  


     PseudoPot. # 1 for Zn read from file:
     ./GBRV_PBEsol/zn_pbesol_v1.uspp.F.UPF
     MD5 check sum: 7d8615e52efe7c1e2b1899de8658bae2
     Pseudo is Ultrasoft, Zval = 20.0
     Generated by new atomic code, or converted to UPF format
     Using radial grid of  943 points,  6 beta functions with: 
                l(1) =   0
                l(2) =   0
                l(3) =   1
                l(4) =   1
                l(5) =   2
                l(6) =   2
     Q(r) pseudized with  8 coefficients,  rinner =    1.100   1.100   1.100
                                                       1.100   1.100

     PseudoPot. # 2 for O  read from file:
     ./GBRV_PBEsol/o_pbesol_v1.2.uspp.F.UPF
     MD5 check sum: 501638753501ef6325af9037351f7734
     Pseudo is Ultrasoft + core correction, Zval =  6.0
     Generated by new atomic code, or converted to UPF format
     Using radial grid of  737 points,  5 beta functions with: 
                l(1) =   0
                l(2) =   0
                l(3) =   1
                l(4) =   1
                l(5) =   2
     Q(r) pseudized with  8 coefficients,  rinner =    0.900   0.900   0.900
                                                       0.900   0.900

     atomic species   valence    mass     pseudopotential
        Zn            20.00    65.38000     Zn( 1.00)
        O              6.00    15.99900     O ( 1.00)

     No symmetry found


                                    s                        frac. trans.

      isym =  1     identity                                     

 cryst.   s( 1) = (     1          0          0      )
                  (     0          1          0      )
                  (     0          0          1      )

 cart.    s( 1) = (  1.0000000  0.0000000  0.0000000 )
                  ( -0.0000000  1.0000000 -0.0000000 )
                  (  0.0000000  0.0000000  1.0000000 )


   Cartesian axes

     site n.     atom                  positions (alat units)
         1           O   tau(   1) = (   0.5000002   0.2886757   0.0098190  )
         2           O   tau(   2) = (   0.0000005   0.5773494   0.6781465  )
         3           Zn  tau(   3) = (   0.5000003   0.2886749   0.7035544  )
         4           Zn  tau(   4) = (   0.0000005   0.5773510   1.3718820  )

   Crystallographic axes

     site n.     atom                  positions (cryst. coord.)
         1           O   tau(   1) = (  0.6666670  0.3333337  0.0073459  )
         2           O   tau(   2) = (  0.3333329  0.6666657  0.5073458  )
         3           Zn  tau(   3) = (  0.6666664  0.3333329  0.5263542  )
         4           Zn  tau(   4) = (  0.3333337  0.6666677  1.0263542  )

     number of k points=   260
                       cart. coord. in units 2pi/alat
        k(    1) = (   0.0000000   0.0000000   0.0000000), wk =   0.0039062
        k(    2) = (  -0.0000000   0.0000000   0.0935170), wk =   0.0078125
        k(    3) = (  -0.0000001   0.0000000   0.1870340), wk =   0.0078125
        k(    4) = (  -0.0000001   0.0000000   0.2805510), wk =   0.0078125
        k(    5) = (   0.0000001  -0.0000000  -0.3740680), wk =   0.0039062
        k(    6) = (  -0.0000000   0.1443375   0.0000000), wk =   0.0078125
        k(    7) = (  -0.0000001   0.1443375   0.0935170), wk =   0.0078125
        k(    8) = (  -0.0000001   0.1443375   0.1870340), wk =   0.0078125
        k(    9) = (  -0.0000001   0.1443375   0.2805510), wk =   0.0078125
        k(   10) = (   0.0000001   0.1443375  -0.3740679), wk =   0.0078125
        k(   11) = (   0.0000000   0.1443375  -0.2805509), wk =   0.0078125
        k(   12) = (   0.0000000   0.1443375  -0.1870339), wk =   0.0078125
        k(   13) = (  -0.0000000   0.1443375  -0.0935170), wk =   0.0078125
        k(   14) = (  -0.0000001   0.2886751   0.0000001), wk =   0.0078125
        k(   15) = (  -0.0000001   0.2886751   0.0935171), wk =   0.0078125
        k(   16) = (  -0.0000001   0.2886751   0.1870340), wk =   0.0078125
        k(   17) = (  -0.0000002   0.2886751   0.2805510), wk =   0.0078125
        k(   18) = (   0.0000000   0.2886751  -0.3740679), wk =   0.0078125
        k(   19) = (  -0.0000000   0.2886751  -0.2805509), wk =   0.0078125
        k(   20) = (  -0.0000000   0.2886751  -0.1870339), wk =   0.0078125
        k(   21) = (  -0.0000001   0.2886751  -0.0935169), wk =   0.0078125
        k(   22) = (  -0.0000001   0.4330126   0.0000001), wk =   0.0078125
        k(   23) = (  -0.0000002   0.4330126   0.0935171), wk =   0.0078125
        k(   24) = (  -0.0000002   0.4330126   0.1870341), wk =   0.0078125
        k(   25) = (  -0.0000002   0.4330126   0.2805511), wk =   0.0078125
        k(   26) = (  -0.0000000   0.4330126  -0.3740679), wk =   0.0078125
        k(   27) = (  -0.0000001   0.4330126  -0.2805509), wk =   0.0078125
        k(   28) = (  -0.0000001   0.4330126  -0.1870339), wk =   0.0078125
        k(   29) = (  -0.0000001   0.4330126  -0.0935169), wk =   0.0078125
        k(   30) = (   0.0000002  -0.5773501  -0.0000001), wk =   0.0039062
        k(   31) = (   0.0000002  -0.5773501   0.0935169), wk =   0.0078125
        k(   32) = (   0.0000001  -0.5773501   0.1870338), wk =   0.0078125
        k(   33) = (   0.0000001  -0.5773501   0.2805508), wk =   0.0078125
        k(   34) = (   0.0000003  -0.5773502  -0.3740681), wk =   0.0039062
        k(   35) = (   0.1250000   0.0721687  -0.0000000), wk =   0.0078125
        k(   36) = (   0.1250000   0.0721687   0.0935170), wk =   0.0078125
        k(   37) = (   0.1249999   0.0721687   0.1870340), wk =   0.0078125
        k(   38) = (   0.1249999   0.0721687   0.2805509), wk =   0.0078125
        k(   39) = (   0.1250001   0.0721687  -0.3740680), wk =   0.0078125
        k(   40) = (   0.1250001   0.0721687  -0.2805510), wk =   0.0078125
        k(   41) = (   0.1250000   0.0721687  -0.1870340), wk =   0.0078125
        k(   42) = (   0.1250000   0.0721687  -0.0935170), wk =   0.0078125
        k(   43) = (   0.1249999   0.2165063   0.0000000), wk =   0.0078125
        k(   44) = (   0.1249999   0.2165063   0.0935170), wk =   0.0078125
        k(   45) = (   0.1249999   0.2165063   0.1870340), wk =   0.0078125
        k(   46) = (   0.1249999   0.2165063   0.2805510), wk =   0.0078125
        k(   47) = (   0.1250000   0.2165062  -0.3740679), wk =   0.0078125
        k(   48) = (   0.1250000   0.2165062  -0.2805510), wk =   0.0078125
        k(   49) = (   0.1250000   0.2165063  -0.1870340), wk =   0.0078125
        k(   50) = (   0.1250000   0.2165063  -0.0935170), wk =   0.0078125
        k(   51) = (   0.1249999   0.3608438   0.0000000), wk =   0.0078125
        k(   52) = (   0.1249999   0.3608438   0.0935170), wk =   0.0078125
        k(   53) = (   0.1249998   0.3608438   0.1870340), wk =   0.0078125
        k(   54) = (   0.1249998   0.3608438   0.2805510), wk =   0.0078125
        k(   55) = (   0.1250000   0.3608438  -0.3740679), wk =   0.0078125
        k(   56) = (   0.1250000   0.3608438  -0.2805509), wk =   0.0078125
        k(   57) = (   0.1249999   0.3608438  -0.1870339), wk =   0.0078125
        k(   58) = (   0.1249999   0.3608438  -0.0935169), wk =   0.0078125
        k(   59) = (   0.1249998   0.5051813   0.0000001), wk =   0.0078125
        k(   60) = (   0.1249998   0.5051813   0.0935171), wk =   0.0078125
        k(   61) = (   0.1249998   0.5051813   0.1870341), wk =   0.0078125
        k(   62) = (   0.1249998   0.5051813   0.2805510), wk =   0.0078125
        k(   63) = (   0.1249999   0.5051813  -0.3740679), wk =   0.0078125
        k(   64) = (   0.1249999   0.5051813  -0.2805509), wk =   0.0078125
        k(   65) = (   0.1249999   0.5051813  -0.1870339), wk =   0.0078125
        k(   66) = (   0.1249999   0.5051813  -0.0935169), wk =   0.0078125
        k(   67) = (   0.1250002  -0.5051814  -0.0000002), wk =   0.0078125
        k(   68) = (   0.1250001  -0.5051814   0.0935168), wk =   0.0078125
        k(   69) = (   0.1250001  -0.5051814   0.1870338), wk =   0.0078125
        k(   70) = (   0.1250001  -0.5051814   0.2805508), wk =   0.0078125
        k(   71) = (   0.1250003  -0.5051814  -0.3740681), wk =   0.0078125
        k(   72) = (   0.1250002  -0.5051814  -0.2805511), wk =   0.0078125
        k(   73) = (   0.1250002  -0.5051814  -0.1870341), wk =   0.0078125
        k(   74) = (   0.1250002  -0.5051814  -0.0935171), wk =   0.0078125
        k(   75) = (   0.1250001  -0.3608439  -0.0000001), wk =   0.0078125
        k(   76) = (   0.1250001  -0.3608439   0.0935169), wk =   0.0078125
        k(   77) = (   0.1250001  -0.3608439   0.1870339), wk =   0.0078125
        k(   78) = (   0.1250000  -0.3608439   0.2805508), wk =   0.0078125
        k(   79) = (   0.1250002  -0.3608439  -0.3740681), wk =   0.0078125
        k(   80) = (   0.1250002  -0.3608439  -0.2805511), wk =   0.0078125
        k(   81) = (   0.1250002  -0.3608439  -0.1870341), wk =   0.0078125
        k(   82) = (   0.1250001  -0.3608439  -0.0935171), wk =   0.0078125
        k(   83) = (   0.1250001  -0.2165063  -0.0000001), wk =   0.0078125
        k(   84) = (   0.1250000  -0.2165063   0.0935169), wk =   0.0078125
        k(   85) = (   0.1250000  -0.2165063   0.1870339), wk =   0.0078125
        k(   86) = (   0.1250000  -0.2165063   0.2805509), wk =   0.0078125
        k(   87) = (   0.1250002  -0.2165064  -0.3740680), wk =   0.0078125
        k(   88) = (   0.1250001  -0.2165064  -0.2805511), wk =   0.0078125
        k(   89) = (   0.1250001  -0.2165064  -0.1870341), wk =   0.0078125
        k(   90) = (   0.1250001  -0.2165063  -0.0935171), wk =   0.0078125
        k(   91) = (   0.1250000  -0.0721688  -0.0000001), wk =   0.0078125
        k(   92) = (   0.1250000  -0.0721688   0.0935169), wk =   0.0078125
        k(   93) = (   0.1250000  -0.0721688   0.1870339), wk =   0.0078125
        k(   94) = (   0.1249999  -0.0721688   0.2805509), wk =   0.0078125
        k(   95) = (   0.1250001  -0.0721688  -0.3740680), wk =   0.0078125
        k(   96) = (   0.1250001  -0.0721688  -0.2805510), wk =   0.0078125
        k(   97) = (   0.1250001  -0.0721688  -0.1870340), wk =   0.0078125
        k(   98) = (   0.1250000  -0.0721688  -0.0935170), wk =   0.0078125
        k(   99) = (   0.2500000   0.1443375  -0.0000000), wk =   0.0078125
        k(  100) = (   0.2499999   0.1443375   0.0935169), wk =   0.0078125
        k(  101) = (   0.2499999   0.1443375   0.1870339), wk =   0.0078125
        k(  102) = (   0.2499999   0.1443375   0.2805509), wk =   0.0078125
        k(  103) = (   0.2500001   0.1443374  -0.3740680), wk =   0.0078125
        k(  104) = (   0.2500000   0.1443374  -0.2805510), wk =   0.0078125
        k(  105) = (   0.2500000   0.1443374  -0.1870340), wk =   0.0078125
        k(  106) = (   0.2500000   0.1443374  -0.0935170), wk =   0.0078125
        k(  107) = (   0.2499999   0.2886750  -0.0000000), wk =   0.0078125
        k(  108) = (   0.2499999   0.2886750   0.0935170), wk =   0.0078125
        k(  109) = (   0.2499999   0.2886750   0.1870340), wk =   0.0078125
        k(  110) = (   0.2499998   0.2886750   0.2805509), wk =   0.0078125
        k(  111) = (   0.2500000   0.2886750  -0.3740680), wk =   0.0078125
        k(  112) = (   0.2500000   0.2886750  -0.2805510), wk =   0.0078125
        k(  113) = (   0.2500000   0.2886750  -0.1870340), wk =   0.0078125
        k(  114) = (   0.2499999   0.2886750  -0.0935170), wk =   0.0078125
        k(  115) = (   0.2499999   0.4330125   0.0000000), wk =   0.0078125
        k(  116) = (   0.2499998   0.4330125   0.0935170), wk =   0.0078125
        k(  117) = (   0.2499998   0.4330125   0.1870340), wk =   0.0078125
        k(  118) = (   0.2499998   0.4330125   0.2805510), wk =   0.0078125
        k(  119) = (   0.2500000   0.4330125  -0.3740679), wk =   0.0078125
        k(  120) = (   0.2499999   0.4330125  -0.2805509), wk =   0.0078125
        k(  121) = (   0.2499999   0.4330125  -0.1870340), wk =   0.0078125
        k(  122) = (   0.2499999   0.4330125  -0.0935170), wk =   0.0078125
        k(  123) = (   0.2499998   0.5773501   0.0000001), wk =   0.0078125
        k(  124) = (   0.2499998   0.5773501   0.0935170), wk =   0.0078125
        k(  125) = (   0.2499998   0.5773501   0.1870340), wk =   0.0078125
        k(  126) = (   0.2499997   0.5773501   0.2805510), wk =   0.0078125
        k(  127) = (   0.2499999   0.5773500  -0.3740679), wk =   0.0078125
        k(  128) = (   0.2499999   0.5773500  -0.2805509), wk =   0.0078125
        k(  129) = (   0.2499999   0.5773500  -0.1870339), wk =   0.0078125
        k(  130) = (   0.2499998   0.5773500  -0.0935169), wk =   0.0078125
        k(  131) = (   0.2500001  -0.4330127  -0.0000002), wk =   0.0078125
        k(  132) = (   0.2500001  -0.4330127   0.0935168), wk =   0.0078125
        k(  133) = (   0.2500001  -0.4330127   0.1870338), wk =   0.0078125
        k(  134) = (   0.2500001  -0.4330127   0.2805508), wk =   0.0078125
        k(  135) = (   0.2500002  -0.4330127  -0.3740681), wk =   0.0078125
        k(  136) = (   0.2500002  -0.4330127  -0.2805511), wk =   0.0078125
        k(  137) = (   0.2500002  -0.4330127  -0.1870342), wk =   0.0078125
        k(  138) = (   0.2500002  -0.4330127  -0.0935172), wk =   0.0078125
        k(  139) = (   0.2500001  -0.2886752  -0.0000001), wk =   0.0078125
        k(  140) = (   0.2500001  -0.2886751   0.0935168), wk =   0.0078125
        k(  141) = (   0.2500000  -0.2886751   0.1870338), wk =   0.0078125
        k(  142) = (   0.2500000  -0.2886751   0.2805508), wk =   0.0078125
        k(  143) = (   0.2500002  -0.2886752  -0.3740681), wk =   0.0078125
        k(  144) = (   0.2500002  -0.2886752  -0.2805511), wk =   0.0078125
        k(  145) = (   0.2500001  -0.2886752  -0.1870341), wk =   0.0078125
        k(  146) = (   0.2500001  -0.2886752  -0.0935171), wk =   0.0078125
        k(  147) = (   0.2500000  -0.1443376  -0.0000001), wk =   0.0078125
        k(  148) = (   0.2500000  -0.1443376   0.0935169), wk =   0.0078125
        k(  149) = (   0.2500000  -0.1443376   0.1870339), wk =   0.0078125
        k(  150) = (   0.2500000  -0.1443376   0.2805508), wk =   0.0078125
        k(  151) = (   0.2500002  -0.1443376  -0.3740681), wk =   0.0078125
        k(  152) = (   0.2500001  -0.1443376  -0.2805511), wk =   0.0078125
        k(  153) = (   0.2500001  -0.1443376  -0.1870341), wk =   0.0078125
        k(  154) = (   0.2500001  -0.1443376  -0.0935171), wk =   0.0078125
        k(  155) = (   0.2500000  -0.0000001  -0.0000001), wk =   0.0078125
        k(  156) = (   0.2500000  -0.0000001   0.0935169), wk =   0.0078125
        k(  157) = (   0.2499999  -0.0000001   0.1870339), wk =   0.0078125
        k(  158) = (   0.2499999  -0.0000001   0.2805509), wk =   0.0078125
        k(  159) = (   0.2500001  -0.0000001  -0.3740680), wk =   0.0078125
        k(  160) = (   0.2500001  -0.0000001  -0.2805510), wk =   0.0078125
        k(  161) = (   0.2500001  -0.0000001  -0.1870341), wk =   0.0078125
        k(  162) = (   0.2500000  -0.0000001  -0.0935171), wk =   0.0078125
        k(  163) = (   0.3749999   0.2165062  -0.0000001), wk =   0.0078125
        k(  164) = (   0.3749999   0.2165062   0.0935169), wk =   0.0078125
        k(  165) = (   0.3749999   0.2165062   0.1870339), wk =   0.0078125
        k(  166) = (   0.3749999   0.2165062   0.2805509), wk =   0.0078125
        k(  167) = (   0.3750000   0.2165062  -0.3740680), wk =   0.0078125
        k(  168) = (   0.3750000   0.2165062  -0.2805510), wk =   0.0078125
        k(  169) = (   0.3750000   0.2165062  -0.1870341), wk =   0.0078125
        k(  170) = (   0.3750000   0.2165062  -0.0935171), wk =   0.0078125
        k(  171) = (   0.3749999   0.3608437  -0.0000000), wk =   0.0078125
        k(  172) = (   0.3749999   0.3608437   0.0935169), wk =   0.0078125
        k(  173) = (   0.3749998   0.3608437   0.1870339), wk =   0.0078125
        k(  174) = (   0.3749998   0.3608437   0.2805509), wk =   0.0078125
        k(  175) = (   0.3750000   0.3608437  -0.3740680), wk =   0.0078125
        k(  176) = (   0.3750000   0.3608437  -0.2805510), wk =   0.0078125
        k(  177) = (   0.3749999   0.3608437  -0.1870340), wk =   0.0078125
        k(  178) = (   0.3749999   0.3608437  -0.0935170), wk =   0.0078125
        k(  179) = (   0.3749998   0.5051812  -0.0000000), wk =   0.0078125
        k(  180) = (   0.3749998   0.5051812   0.0935170), wk =   0.0078125
        k(  181) = (   0.3749998   0.5051813   0.1870340), wk =   0.0078125
        k(  182) = (   0.3749998   0.5051813   0.2805510), wk =   0.0078125
        k(  183) = (   0.3749999   0.5051812  -0.3740680), wk =   0.0078125
        k(  184) = (   0.3749999   0.5051812  -0.2805510), wk =   0.0078125
        k(  185) = (   0.3749999   0.5051812  -0.1870340), wk =   0.0078125
        k(  186) = (   0.3749999   0.5051812  -0.0935170), wk =   0.0078125
        k(  187) = (   0.3749998   0.6495188   0.0000000), wk =   0.0078125
        k(  188) = (   0.3749998   0.6495188   0.0935170), wk =   0.0078125
        k(  189) = (   0.3749997   0.6495188   0.1870340), wk =   0.0078125
        k(  190) = (   0.3749997   0.6495188   0.2805510), wk =   0.0078125
        k(  191) = (   0.3749999   0.6495188  -0.3740679), wk =   0.0078125
        k(  192) = (   0.3749999   0.6495188  -0.2805509), wk =   0.0078125
        k(  193) = (   0.3749998   0.6495188  -0.1870340), wk =   0.0078125
        k(  194) = (   0.3749998   0.6495188  -0.0935170), wk =   0.0078125
        k(  195) = (   0.3750001  -0.3608440  -0.0000002), wk =   0.0078125
        k(  196) = (   0.3750001  -0.3608440   0.0935168), wk =   0.0078125
        k(  197) = (   0.3750001  -0.3608440   0.1870338), wk =   0.0078125
        k(  198) = (   0.3750000  -0.3608439   0.2805508), wk =   0.0078125
        k(  199) = (   0.3750002  -0.3608440  -0.3740682), wk =   0.0078125
        k(  200) = (   0.3750002  -0.3608440  -0.2805512), wk =   0.0078125
        k(  201) = (   0.3750002  -0.3608440  -0.1870342), wk =   0.0078125
        k(  202) = (   0.3750001  -0.3608440  -0.0935172), wk =   0.0078125
        k(  203) = (   0.3750001  -0.2165064  -0.0000002), wk =   0.0078125
        k(  204) = (   0.3750000  -0.2165064   0.0935168), wk =   0.0078125
        k(  205) = (   0.3750000  -0.2165064   0.1870338), wk =   0.0078125
        k(  206) = (   0.3750000  -0.2165064   0.2805508), wk =   0.0078125
        k(  207) = (   0.3750002  -0.2165064  -0.3740681), wk =   0.0078125
        k(  208) = (   0.3750001  -0.2165064  -0.2805511), wk =   0.0078125
        k(  209) = (   0.3750001  -0.2165064  -0.1870341), wk =   0.0078125
        k(  210) = (   0.3750001  -0.2165064  -0.0935172), wk =   0.0078125
        k(  211) = (   0.3750000  -0.0721689  -0.0000001), wk =   0.0078125
        k(  212) = (   0.3750000  -0.0721689   0.0935168), wk =   0.0078125
        k(  213) = (   0.3750000  -0.0721689   0.1870338), wk =   0.0078125
        k(  214) = (   0.3749999  -0.0721689   0.2805508), wk =   0.0078125
        k(  215) = (   0.3750001  -0.0721689  -0.3740681), wk =   0.0078125
        k(  216) = (   0.3750001  -0.0721689  -0.2805511), wk =   0.0078125
        k(  217) = (   0.3750001  -0.0721689  -0.1870341), wk =   0.0078125
        k(  218) = (   0.3750000  -0.0721689  -0.0935171), wk =   0.0078125
        k(  219) = (   0.3750000   0.0721686  -0.0000001), wk =   0.0078125
        k(  220) = (   0.3750000   0.0721686   0.0935169), wk =   0.0078125
        k(  221) = (   0.3749999   0.0721687   0.1870339), wk =   0.0078125
        k(  222) = (   0.3749999   0.0721687   0.2805509), wk =   0.0078125
        k(  223) = (   0.3750001   0.0721686  -0.3740681), wk =   0.0078125
        k(  224) = (   0.3750001   0.0721686  -0.2805511), wk =   0.0078125
        k(  225) = (   0.3750000   0.0721686  -0.1870341), wk =   0.0078125
        k(  226) = (   0.3750000   0.0721686  -0.0935171), wk =   0.0078125
        k(  227) = (  -0.4999999  -0.2886749   0.0000001), wk =   0.0039062
        k(  228) = (  -0.4999999  -0.2886749   0.0935171), wk =   0.0078125
        k(  229) = (  -0.5000000  -0.2886749   0.1870341), wk =   0.0078125
        k(  230) = (  -0.5000000  -0.2886749   0.2805511), wk =   0.0078125
        k(  231) = (  -0.4999998  -0.2886749  -0.3740679), wk =   0.0039062
        k(  232) = (  -0.5000000  -0.1443374   0.0000001), wk =   0.0078125
        k(  233) = (  -0.5000000  -0.1443374   0.0935171), wk =   0.0078125
        k(  234) = (  -0.5000000  -0.1443374   0.1870341), wk =   0.0078125
        k(  235) = (  -0.5000000  -0.1443374   0.2805511), wk =   0.0078125
        k(  236) = (  -0.4999998  -0.1443374  -0.3740678), wk =   0.0078125
        k(  237) = (  -0.4999999  -0.1443374  -0.2805508), wk =   0.0078125
        k(  238) = (  -0.4999999  -0.1443374  -0.1870338), wk =   0.0078125
        k(  239) = (  -0.4999999  -0.1443374  -0.0935169), wk =   0.0078125
        k(  240) = (  -0.5000000   0.0000002   0.0000002), wk =   0.0078125
        k(  241) = (  -0.5000000   0.0000002   0.0935172), wk =   0.0078125
        k(  242) = (  -0.5000001   0.0000002   0.1870341), wk =   0.0078125
        k(  243) = (  -0.5000001   0.0000002   0.2805511), wk =   0.0078125
        k(  244) = (  -0.4999999   0.0000002  -0.3740678), wk =   0.0078125
        k(  245) = (  -0.4999999   0.0000002  -0.2805508), wk =   0.0078125
        k(  246) = (  -0.4999999   0.0000002  -0.1870338), wk =   0.0078125
        k(  247) = (  -0.5000000   0.0000002  -0.0935168), wk =   0.0078125
        k(  248) = (  -0.5000000   0.1443377   0.0000002), wk =   0.0078125
        k(  249) = (  -0.5000001   0.1443377   0.0935172), wk =   0.0078125
        k(  250) = (  -0.5000001   0.1443377   0.1870342), wk =   0.0078125
        k(  251) = (  -0.5000001   0.1443377   0.2805512), wk =   0.0078125
        k(  252) = (  -0.4999999   0.1443377  -0.3740678), wk =   0.0078125
        k(  253) = (  -0.5000000   0.1443377  -0.2805508), wk =   0.0078125
        k(  254) = (  -0.5000000   0.1443377  -0.1870338), wk =   0.0078125
        k(  255) = (  -0.5000000   0.1443377  -0.0935168), wk =   0.0078125
        k(  256) = (  -0.4999997  -0.8660250  -0.0000000), wk =   0.0039062
        k(  257) = (  -0.4999997  -0.8660250   0.0935170), wk =   0.0078125
        k(  258) = (  -0.4999998  -0.8660250   0.1870339), wk =   0.0078125
        k(  259) = (  -0.4999998  -0.8660250   0.2805509), wk =   0.0078125
        k(  260) = (  -0.4999996  -0.8660251  -0.3740680), wk =   0.0039062

                       cryst. coord.
        k(    1) = (   0.0000000   0.0000000   0.0000000), wk =   0.0039062
        k(    2) = (   0.0000000  -0.0000000   0.1250000), wk =   0.0078125
        k(    3) = (   0.0000000  -0.0000000   0.2500000), wk =   0.0078125
        k(    4) = (   0.0000000   0.0000000   0.3750000), wk =   0.0078125
        k(    5) = (  -0.0000000   0.0000000  -0.5000000), wk =   0.0039062
        k(    6) = (  -0.0000000   0.1250000   0.0000000), wk =   0.0078125
        k(    7) = (  -0.0000000   0.1250000   0.1250000), wk =   0.0078125
        k(    8) = (  -0.0000000   0.1250000   0.2500000), wk =   0.0078125
        k(    9) = (  -0.0000000   0.1250000   0.3750000), wk =   0.0078125
        k(   10) = (  -0.0000000   0.1250000  -0.5000000), wk =   0.0078125
        k(   11) = (  -0.0000000   0.1250000  -0.3750000), wk =   0.0078125
        k(   12) = (  -0.0000000   0.1250000  -0.2500000), wk =   0.0078125
        k(   13) = (  -0.0000000   0.1250000  -0.1250000), wk =   0.0078125
        k(   14) = (  -0.0000000   0.2500000   0.0000000), wk =   0.0078125
        k(   15) = (  -0.0000000   0.2500000   0.1250000), wk =   0.0078125
        k(   16) = (  -0.0000000   0.2500000   0.2500000), wk =   0.0078125
        k(   17) = (   0.0000000   0.2500000   0.3750000), wk =   0.0078125
        k(   18) = (  -0.0000000   0.2500000  -0.5000000), wk =   0.0078125
        k(   19) = (  -0.0000000   0.2500000  -0.3750000), wk =   0.0078125
        k(   20) = (  -0.0000000   0.2500000  -0.2500000), wk =   0.0078125
        k(   21) = (  -0.0000000   0.2500000  -0.1250000), wk =   0.0078125
        k(   22) = (   0.0000000   0.3750000   0.0000000), wk =   0.0078125
        k(   23) = (  -0.0000000   0.3750000   0.1250000), wk =   0.0078125
        k(   24) = (   0.0000000   0.3750000   0.2500000), wk =   0.0078125
        k(   25) = (  -0.0000000   0.3750000   0.3750000), wk =   0.0078125
        k(   26) = (  -0.0000000   0.3750000  -0.5000000), wk =   0.0078125
        k(   27) = (  -0.0000000   0.3750000  -0.3750000), wk =   0.0078125
        k(   28) = (  -0.0000000   0.3750000  -0.2500000), wk =   0.0078125
        k(   29) = (   0.0000000   0.3750000  -0.1250000), wk =   0.0078125
        k(   30) = (   0.0000000  -0.5000000  -0.0000000), wk =   0.0039062
        k(   31) = (  -0.0000000  -0.5000000   0.1250000), wk =   0.0078125
        k(   32) = (   0.0000000  -0.5000000   0.2500000), wk =   0.0078125
        k(   33) = (  -0.0000000  -0.5000000   0.3750000), wk =   0.0078125
        k(   34) = (   0.0000000  -0.5000000  -0.5000000), wk =   0.0039062
        k(   35) = (   0.1250000  -0.0000000   0.0000000), wk =   0.0078125
        k(   36) = (   0.1250000  -0.0000000   0.1250000), wk =   0.0078125
        k(   37) = (   0.1250000  -0.0000000   0.2500000), wk =   0.0078125
        k(   38) = (   0.1250000  -0.0000000   0.3750000), wk =   0.0078125
        k(   39) = (   0.1250000  -0.0000000  -0.5000000), wk =   0.0078125
        k(   40) = (   0.1250000  -0.0000000  -0.3750000), wk =   0.0078125
        k(   41) = (   0.1250000  -0.0000000  -0.2500000), wk =   0.0078125
        k(   42) = (   0.1250000  -0.0000000  -0.1250000), wk =   0.0078125
        k(   43) = (   0.1250000   0.1250000   0.0000000), wk =   0.0078125
        k(   44) = (   0.1250000   0.1250000   0.1250000), wk =   0.0078125
        k(   45) = (   0.1250000   0.1250000   0.2500000), wk =   0.0078125
        k(   46) = (   0.1250000   0.1250000   0.3750000), wk =   0.0078125
        k(   47) = (   0.1250000   0.1250000  -0.5000000), wk =   0.0078125
        k(   48) = (   0.1250000   0.1250000  -0.3750000), wk =   0.0078125
        k(   49) = (   0.1250000   0.1250000  -0.2500000), wk =   0.0078125
        k(   50) = (   0.1250000   0.1250000  -0.1250000), wk =   0.0078125
        k(   51) = (   0.1250000   0.2500000  -0.0000000), wk =   0.0078125
        k(   52) = (   0.1250000   0.2500000   0.1250000), wk =   0.0078125
        k(   53) = (   0.1250000   0.2500000   0.2500000), wk =   0.0078125
        k(   54) = (   0.1250000   0.2500000   0.3750000), wk =   0.0078125
        k(   55) = (   0.1250000   0.2500000  -0.5000000), wk =   0.0078125
        k(   56) = (   0.1250000   0.2500000  -0.3750000), wk =   0.0078125
        k(   57) = (   0.1250000   0.2500000  -0.2500000), wk =   0.0078125
        k(   58) = (   0.1250000   0.2500000  -0.1250000), wk =   0.0078125
        k(   59) = (   0.1250000   0.3750000   0.0000000), wk =   0.0078125
        k(   60) = (   0.1250000   0.3750000   0.1250000), wk =   0.0078125
        k(   61) = (   0.1250000   0.3750000   0.2500000), wk =   0.0078125
        k(   62) = (   0.1250000   0.3750000   0.3750000), wk =   0.0078125
        k(   63) = (   0.1250000   0.3750000  -0.5000000), wk =   0.0078125
        k(   64) = (   0.1250000   0.3750000  -0.3750000), wk =   0.0078125
        k(   65) = (   0.1250000   0.3750000  -0.2500000), wk =   0.0078125
        k(   66) = (   0.1250000   0.3750000  -0.1250000), wk =   0.0078125
        k(   67) = (   0.1250000  -0.5000000   0.0000000), wk =   0.0078125
        k(   68) = (   0.1250000  -0.5000000   0.1250000), wk =   0.0078125
        k(   69) = (   0.1250000  -0.5000000   0.2500000), wk =   0.0078125
        k(   70) = (   0.1250000  -0.5000000   0.3750000), wk =   0.0078125
        k(   71) = (   0.1250000  -0.5000000  -0.5000000), wk =   0.0078125
        k(   72) = (   0.1250000  -0.5000000  -0.3750000), wk =   0.0078125
        k(   73) = (   0.1250000  -0.5000000  -0.2500000), wk =   0.0078125
        k(   74) = (   0.1250000  -0.5000000  -0.1250000), wk =   0.0078125
        k(   75) = (   0.1250000  -0.3750000   0.0000000), wk =   0.0078125
        k(   76) = (   0.1250000  -0.3750000   0.1250000), wk =   0.0078125
        k(   77) = (   0.1250000  -0.3750000   0.2500000), wk =   0.0078125
        k(   78) = (   0.1250000  -0.3750000   0.3750000), wk =   0.0078125
        k(   79) = (   0.1250000  -0.3750000  -0.5000000), wk =   0.0078125
        k(   80) = (   0.1250000  -0.3750000  -0.3750000), wk =   0.0078125
        k(   81) = (   0.1250000  -0.3750000  -0.2500000), wk =   0.0078125
        k(   82) = (   0.1250000  -0.3750000  -0.1250000), wk =   0.0078125
        k(   83) = (   0.1250000  -0.2500000   0.0000000), wk =   0.0078125
        k(   84) = (   0.1250000  -0.2500000   0.1250000), wk =   0.0078125
        k(   85) = (   0.1250000  -0.2500000   0.2500000), wk =   0.0078125
        k(   86) = (   0.1250000  -0.2500000   0.3750000), wk =   0.0078125
        k(   87) = (   0.1250000  -0.2500000  -0.5000000), wk =   0.0078125
        k(   88) = (   0.1250000  -0.2500000  -0.3750000), wk =   0.0078125
        k(   89) = (   0.1250000  -0.2500000  -0.2500000), wk =   0.0078125
        k(   90) = (   0.1250000  -0.2500000  -0.1250000), wk =   0.0078125
        k(   91) = (   0.1250000  -0.1250000   0.0000000), wk =   0.0078125
        k(   92) = (   0.1250000  -0.1250000   0.1250000), wk =   0.0078125
        k(   93) = (   0.1250000  -0.1250000   0.2500000), wk =   0.0078125
        k(   94) = (   0.1250000  -0.1250000   0.3750000), wk =   0.0078125
        k(   95) = (   0.1250000  -0.1250000  -0.5000000), wk =   0.0078125
        k(   96) = (   0.1250000  -0.1250000  -0.3750000), wk =   0.0078125
        k(   97) = (   0.1250000  -0.1250000  -0.2500000), wk =   0.0078125
        k(   98) = (   0.1250000  -0.1250000  -0.1250000), wk =   0.0078125
        k(   99) = (   0.2500000  -0.0000000   0.0000000), wk =   0.0078125
        k(  100) = (   0.2500000  -0.0000000   0.1250000), wk =   0.0078125
        k(  101) = (   0.2500000  -0.0000000   0.2500000), wk =   0.0078125
        k(  102) = (   0.2500000  -0.0000000   0.3750000), wk =   0.0078125
        k(  103) = (   0.2500000  -0.0000000  -0.5000000), wk =   0.0078125
        k(  104) = (   0.2500000  -0.0000000  -0.3750000), wk =   0.0078125
        k(  105) = (   0.2500000  -0.0000000  -0.2500000), wk =   0.0078125
        k(  106) = (   0.2500000  -0.0000000  -0.1250000), wk =   0.0078125
        k(  107) = (   0.2500000   0.1250000   0.0000000), wk =   0.0078125
        k(  108) = (   0.2500000   0.1250000   0.1250000), wk =   0.0078125
        k(  109) = (   0.2500000   0.1250000   0.2500000), wk =   0.0078125
        k(  110) = (   0.2500000   0.1250000   0.3750000), wk =   0.0078125
        k(  111) = (   0.2500000   0.1250000  -0.5000000), wk =   0.0078125
        k(  112) = (   0.2500000   0.1250000  -0.3750000), wk =   0.0078125
        k(  113) = (   0.2500000   0.1250000  -0.2500000), wk =   0.0078125
        k(  114) = (   0.2500000   0.1250000  -0.1250000), wk =   0.0078125
        k(  115) = (   0.2500000   0.2500000   0.0000000), wk =   0.0078125
        k(  116) = (   0.2500000   0.2500000   0.1250000), wk =   0.0078125
        k(  117) = (   0.2500000   0.2500000   0.2500000), wk =   0.0078125
        k(  118) = (   0.2500000   0.2500000   0.3750000), wk =   0.0078125
        k(  119) = (   0.2500000   0.2500000  -0.5000000), wk =   0.0078125
        k(  120) = (   0.2500000   0.2500000  -0.3750000), wk =   0.0078125
        k(  121) = (   0.2500000   0.2500000  -0.2500000), wk =   0.0078125
        k(  122) = (   0.2500000   0.2500000  -0.1250000), wk =   0.0078125
        k(  123) = (   0.2500000   0.3750000  -0.0000000), wk =   0.0078125
        k(  124) = (   0.2500000   0.3750000   0.1250000), wk =   0.0078125
        k(  125) = (   0.2500000   0.3750000   0.2500000), wk =   0.0078125
        k(  126) = (   0.2500000   0.3750000   0.3750000), wk =   0.0078125
        k(  127) = (   0.2500000   0.3750000  -0.5000000), wk =   0.0078125
        k(  128) = (   0.2500000   0.3750000  -0.3750000), wk =   0.0078125
        k(  129) = (   0.2500000   0.3750000  -0.2500000), wk =   0.0078125
        k(  130) = (   0.2500000   0.3750000  -0.1250000), wk =   0.0078125
        k(  131) = (   0.2500000  -0.5000000   0.0000000), wk =   0.0078125
        k(  132) = (   0.2500000  -0.5000000   0.1250000), wk =   0.0078125
        k(  133) = (   0.2500000  -0.5000000   0.2500000), wk =   0.0078125
        k(  134) = (   0.2500000  -0.5000000   0.3750000), wk =   0.0078125
        k(  135) = (   0.2500000  -0.5000000  -0.5000000), wk =   0.0078125
        k(  136) = (   0.2500000  -0.5000000  -0.3750000), wk =   0.0078125
        k(  137) = (   0.2500000  -0.5000000  -0.2500000), wk =   0.0078125
        k(  138) = (   0.2500000  -0.5000000  -0.1250000), wk =   0.0078125
        k(  139) = (   0.2500000  -0.3750000   0.0000000), wk =   0.0078125
        k(  140) = (   0.2500000  -0.3750000   0.1250000), wk =   0.0078125
        k(  141) = (   0.2500000  -0.3750000   0.2500000), wk =   0.0078125
        k(  142) = (   0.2500000  -0.3750000   0.3750000), wk =   0.0078125
        k(  143) = (   0.2500000  -0.3750000  -0.5000000), wk =   0.0078125
        k(  144) = (   0.2500000  -0.3750000  -0.3750000), wk =   0.0078125
        k(  145) = (   0.2500000  -0.3750000  -0.2500000), wk =   0.0078125
        k(  146) = (   0.2500000  -0.3750000  -0.1250000), wk =   0.0078125
        k(  147) = (   0.2500000  -0.2500000   0.0000000), wk =   0.0078125
        k(  148) = (   0.2500000  -0.2500000   0.1250000), wk =   0.0078125
        k(  149) = (   0.2500000  -0.2500000   0.2500000), wk =   0.0078125
        k(  150) = (   0.2500000  -0.2500000   0.3750000), wk =   0.0078125
        k(  151) = (   0.2500000  -0.2500000  -0.5000000), wk =   0.0078125
        k(  152) = (   0.2500000  -0.2500000  -0.3750000), wk =   0.0078125
        k(  153) = (   0.2500000  -0.2500000  -0.2500000), wk =   0.0078125
        k(  154) = (   0.2500000  -0.2500000  -0.1250000), wk =   0.0078125
        k(  155) = (   0.2500000  -0.1250000   0.0000000), wk =   0.0078125
        k(  156) = (   0.2500000  -0.1250000   0.1250000), wk =   0.0078125
        k(  157) = (   0.2500000  -0.1250000   0.2500000), wk =   0.0078125
        k(  158) = (   0.2500000  -0.1250000   0.3750000), wk =   0.0078125
        k(  159) = (   0.2500000  -0.1250000  -0.5000000), wk =   0.0078125
        k(  160) = (   0.2500000  -0.1250000  -0.3750000), wk =   0.0078125
        k(  161) = (   0.2500000  -0.1250000  -0.2500000), wk =   0.0078125
        k(  162) = (   0.2500000  -0.1250000  -0.1250000), wk =   0.0078125
        k(  163) = (   0.3750000  -0.0000000   0.0000000), wk =   0.0078125
        k(  164) = (   0.3750000  -0.0000000   0.1250000), wk =   0.0078125
        k(  165) = (   0.3750000  -0.0000000   0.2500000), wk =   0.0078125
        k(  166) = (   0.3750000  -0.0000000   0.3750000), wk =   0.0078125
        k(  167) = (   0.3750000  -0.0000000  -0.5000000), wk =   0.0078125
        k(  168) = (   0.3750000  -0.0000000  -0.3750000), wk =   0.0078125
        k(  169) = (   0.3750000  -0.0000000  -0.2500000), wk =   0.0078125
        k(  170) = (   0.3750000  -0.0000000  -0.1250000), wk =   0.0078125
        k(  171) = (   0.3750000   0.1250000   0.0000000), wk =   0.0078125
        k(  172) = (   0.3750000   0.1250000   0.1250000), wk =   0.0078125
        k(  173) = (   0.3750000   0.1250000   0.2500000), wk =   0.0078125
        k(  174) = (   0.3750000   0.1250000   0.3750000), wk =   0.0078125
        k(  175) = (   0.3750000   0.1250000  -0.5000000), wk =   0.0078125
        k(  176) = (   0.3750000   0.1250000  -0.3750000), wk =   0.0078125
        k(  177) = (   0.3750000   0.1250000  -0.2500000), wk =   0.0078125
        k(  178) = (   0.3750000   0.1250000  -0.1250000), wk =   0.0078125
        k(  179) = (   0.3750000   0.2500000   0.0000000), wk =   0.0078125
        k(  180) = (   0.3750000   0.2500000   0.1250000), wk =   0.0078125
        k(  181) = (   0.3750000   0.2500000   0.2500000), wk =   0.0078125
        k(  182) = (   0.3750000   0.2500000   0.3750000), wk =   0.0078125
        k(  183) = (   0.3750000   0.2500000  -0.5000000), wk =   0.0078125
        k(  184) = (   0.3750000   0.2500000  -0.3750000), wk =   0.0078125
        k(  185) = (   0.3750000   0.2500000  -0.2500000), wk =   0.0078125
        k(  186) = (   0.3750000   0.2500000  -0.1250000), wk =   0.0078125
        k(  187) = (   0.3750000   0.3750000   0.0000000), wk =   0.0078125
        k(  188) = (   0.3750000   0.3750000   0.1250000), wk =   0.0078125
        k(  189) = (   0.3750000   0.3750000   0.2500000), wk =   0.0078125
        k(  190) = (   0.3750000   0.3750000   0.3750000), wk =   0.0078125
        k(  191) = (   0.3750000   0.3750000  -0.5000000), wk =   0.0078125
        k(  192) = (   0.3750000   0.3750000  -0.3750000), wk =   0.0078125
        k(  193) = (   0.3750000   0.3750000  -0.2500000), wk =   0.0078125
        k(  194) = (   0.3750000   0.3750000  -0.1250000), wk =   0.0078125
        k(  195) = (   0.3750000  -0.5000000   0.0000000), wk =   0.0078125
        k(  196) = (   0.3750000  -0.5000000   0.1250000), wk =   0.0078125
        k(  197) = (   0.3750000  -0.5000000   0.2500000), wk =   0.0078125
        k(  198) = (   0.3750000  -0.5000000   0.3750000), wk =   0.0078125
        k(  199) = (   0.3750000  -0.5000000  -0.5000000), wk =   0.0078125
        k(  200) = (   0.3750000  -0.5000000  -0.3750000), wk =   0.0078125
        k(  201) = (   0.3750000  -0.5000000  -0.2500000), wk =   0.0078125
        k(  202) = (   0.3750000  -0.5000000  -0.1250000), wk =   0.0078125
        k(  203) = (   0.3750000  -0.3750000   0.0000000), wk =   0.0078125
        k(  204) = (   0.3750000  -0.3750000   0.1250000), wk =   0.0078125
        k(  205) = (   0.3750000  -0.3750000   0.2500000), wk =   0.0078125
        k(  206) = (   0.3750000  -0.3750000   0.3750000), wk =   0.0078125
        k(  207) = (   0.3750000  -0.3750000  -0.5000000), wk =   0.0078125
        k(  208) = (   0.3750000  -0.3750000  -0.3750000), wk =   0.0078125
        k(  209) = (   0.3750000  -0.3750000  -0.2500000), wk =   0.0078125
        k(  210) = (   0.3750000  -0.3750000  -0.1250000), wk =   0.0078125
        k(  211) = (   0.3750000  -0.2500000   0.0000000), wk =   0.0078125
        k(  212) = (   0.3750000  -0.2500000   0.1250000), wk =   0.0078125
        k(  213) = (   0.3750000  -0.2500000   0.2500000), wk =   0.0078125
        k(  214) = (   0.3750000  -0.2500000   0.3750000), wk =   0.0078125
        k(  215) = (   0.3750000  -0.2500000  -0.5000000), wk =   0.0078125
        k(  216) = (   0.3750000  -0.2500000  -0.3750000), wk =   0.0078125
        k(  217) = (   0.3750000  -0.2500000  -0.2500000), wk =   0.0078125
        k(  218) = (   0.3750000  -0.2500000  -0.1250000), wk =   0.0078125
        k(  219) = (   0.3750000  -0.1250000   0.0000000), wk =   0.0078125
        k(  220) = (   0.3750000  -0.1250000   0.1250000), wk =   0.0078125
        k(  221) = (   0.3750000  -0.1250000   0.2500000), wk =   0.0078125
        k(  222) = (   0.3750000  -0.1250000   0.3750000), wk =   0.0078125
        k(  223) = (   0.3750000  -0.1250000  -0.5000000), wk =   0.0078125
        k(  224) = (   0.3750000  -0.1250000  -0.3750000), wk =   0.0078125
        k(  225) = (   0.3750000  -0.1250000  -0.2500000), wk =   0.0078125
        k(  226) = (   0.3750000  -0.1250000  -0.1250000), wk =   0.0078125
        k(  227) = (  -0.5000000   0.0000000  -0.0000000), wk =   0.0039062
        k(  228) = (  -0.5000000   0.0000000   0.1250000), wk =   0.0078125
        k(  229) = (  -0.5000000   0.0000000   0.2500000), wk =   0.0078125
        k(  230) = (  -0.5000000   0.0000000   0.3750000), wk =   0.0078125
        k(  231) = (  -0.5000000   0.0000000  -0.5000000), wk =   0.0039062
        k(  232) = (  -0.5000000   0.1250000  -0.0000000), wk =   0.0078125
        k(  233) = (  -0.5000000   0.1250000   0.1250000), wk =   0.0078125
        k(  234) = (  -0.5000000   0.1250000   0.2500000), wk =   0.0078125
        k(  235) = (  -0.5000000   0.1250000   0.3750000), wk =   0.0078125
        k(  236) = (  -0.5000000   0.1250000  -0.5000000), wk =   0.0078125
        k(  237) = (  -0.5000000   0.1250000  -0.3750000), wk =   0.0078125
        k(  238) = (  -0.5000000   0.1250000  -0.2500000), wk =   0.0078125
        k(  239) = (  -0.5000000   0.1250000  -0.1250000), wk =   0.0078125
        k(  240) = (  -0.5000000   0.2500000  -0.0000000), wk =   0.0078125
        k(  241) = (  -0.5000000   0.2500000   0.1250000), wk =   0.0078125
        k(  242) = (  -0.5000000   0.2500000   0.2500000), wk =   0.0078125
        k(  243) = (  -0.5000000   0.2500000   0.3750000), wk =   0.0078125
        k(  244) = (  -0.5000000   0.2500000  -0.5000000), wk =   0.0078125
        k(  245) = (  -0.5000000   0.2500000  -0.3750000), wk =   0.0078125
        k(  246) = (  -0.5000000   0.2500000  -0.2500000), wk =   0.0078125
        k(  247) = (  -0.5000000   0.2500000  -0.1250000), wk =   0.0078125
        k(  248) = (  -0.5000000   0.3750000  -0.0000000), wk =   0.0078125
        k(  249) = (  -0.5000000   0.3750000   0.1250000), wk =   0.0078125
        k(  250) = (  -0.5000000   0.3750000   0.2500000), wk =   0.0078125
        k(  251) = (  -0.5000000   0.3750000   0.3750000), wk =   0.0078125
        k(  252) = (  -0.5000000   0.3750000  -0.5000000), wk =   0.0078125
        k(  253) = (  -0.5000000   0.3750000  -0.3750000), wk =   0.0078125
        k(  254) = (  -0.5000000   0.3750000  -0.2500000), wk =   0.0078125
        k(  255) = (  -0.5000000   0.3750000  -0.1250000), wk =   0.0078125
        k(  256) = (  -0.5000000  -0.5000000  -0.0000000), wk =   0.0039062
        k(  257) = (  -0.5000000  -0.5000000   0.1250000), wk =   0.0078125
        k(  258) = (  -0.5000000  -0.5000000   0.2500000), wk =   0.0078125
        k(  259) = (  -0.5000000  -0.5000000   0.3750000), wk =   0.0078125
        k(  260) = (  -0.5000000  -0.5000000  -0.5000000), wk =   0.0039062

     Dense  grid:    76369 G-vectors     FFT dimensions: (  54,  54,  72)

     Smooth grid:    29713 G-vectors     FFT dimensions: (  40,  40,  50)

     Dynamical RAM for                 wfc:       0.09 MB

     Dynamical RAM for     wfc (w. buffer):       6.07 MB

     Dynamical RAM for           str. fact:       0.15 MB

     Dynamical RAM for           local pot:       0.00 MB

     Dynamical RAM for          nlocal pot:       0.22 MB

     Dynamical RAM for                qrad:       4.02 MB

     Dynamical RAM for          rho,v,vnew:       0.55 MB

     Dynamical RAM for               rhoin:       0.18 MB

     Dynamical RAM for            rho*nmix:       1.17 MB

     Dynamical RAM for           G-vectors:       0.29 MB

     Dynamical RAM for          h,s,v(r/c):       0.12 MB

     Dynamical RAM for          <psi|beta>:       0.02 MB

     Dynamical RAM for                 psi:       0.37 MB

     Dynamical RAM for                hpsi:       0.37 MB

     Dynamical RAM for                spsi:       0.37 MB

     Dynamical RAM for      wfcinit/wfcrot:       0.27 MB

     Dynamical RAM for           addusdens:       3.48 MB

     Dynamical RAM for          addusforce:       3.62 MB

     Dynamical RAM for         addusstress:       3.69 MB

     Estimated static dynamical RAM per process >      13.42 MB

     Estimated max dynamical RAM per process >      17.11 MB

     Estimated total dynamical RAM >       1.07 GB

     Check: negative core charge=   -0.000003

     Initial potential from superposition of free atoms

     starting charge   51.99974, renormalised to   52.00000
     Starting wfcs are   34 randomized atomic wfcs

     total cpu time spent up to now is        2.5 secs

     Self-consistent Calculation

     iteration #  1     ecut=    80.00 Ry     beta= 0.50
     Davidson diagonalization with overlap
     ethr =  1.00E-02,  avg # of iterations =  1.0

     total cpu time spent up to now is        3.4 secs

     total energy              =    -986.75601580 Ry
     Harris-Foulkes estimate   =    -987.27110342 Ry
     estimated scf accuracy    <       0.80962752 Ry

     iteration #  2     ecut=    80.00 Ry     beta= 0.50
     Davidson diagonalization with overlap
     ethr =  1.56E-03,  avg # of iterations =  3.0

     total cpu time spent up to now is        4.8 secs

     total energy              =    -986.99523086 Ry
     Harris-Foulkes estimate   =    -987.15743228 Ry
     estimated scf accuracy    <       0.37273647 Ry

     iteration #  3     ecut=    80.00 Ry     beta= 0.50
     Davidson diagonalization with overlap
     ethr =  7.17E-04,  avg # of iterations =  2.1

     total cpu time spent up to now is        5.9 secs

     total energy              =    -987.06231815 Ry
     Harris-Foulkes estimate   =    -987.06460058 Ry
     estimated scf accuracy    <       0.00677568 Ry

     iteration #  4     ecut=    80.00 Ry     beta= 0.50
     Davidson diagonalization with overlap
     ethr =  1.30E-05,  avg # of iterations =  2.0

     total cpu time spent up to now is        7.0 secs

     total energy              =    -987.06289800 Ry
     Harris-Foulkes estimate   =    -987.06333732 Ry
     estimated scf accuracy    <       0.00149685 Ry

     iteration #  5     ecut=    80.00 Ry     beta= 0.50
     Davidson diagonalization with overlap
     ethr =  2.88E-06,  avg # of iterations =  2.0

     total cpu time spent up to now is        8.1 secs

     total energy              =    -987.06304877 Ry
     Harris-Foulkes estimate   =    -987.06305646 Ry
     estimated scf accuracy    <       0.00001594 Ry

     iteration #  6     ecut=    80.00 Ry     beta= 0.50
     Davidson diagonalization with overlap
     ethr =  3.07E-08,  avg # of iterations =  2.5

     total cpu time spent up to now is        9.3 secs

     total energy              =    -987.06305176 Ry
     Harris-Foulkes estimate   =    -987.06305148 Ry
     estimated scf accuracy    <       0.00000392 Ry

     iteration #  7     ecut=    80.00 Ry     beta= 0.50
     Davidson diagonalization with overlap
     ethr =  7.53E-09,  avg # of iterations =  2.0

     total cpu time spent up to now is       10.3 secs

     End of self-consistent calculation

          k = 0.0000 0.0000 0.0000 (  3655 PWs)   bands (ev):

  -113.8241-113.8235 -68.2089 -68.2020 -68.1734 -68.1734 -68.1713 -68.1713
    -8.7877  -7.6049   3.3939   3.3939   3.4960   3.4960   4.1897   4.6261
     4.6261   4.6856   5.0111   5.0111   5.4061   8.3849   8.4866   8.4866
     9.2063   9.2064

     occupation numbers 
     1.0000   1.0000   1.0000   1.0000   1.0000   1.0000   1.0000   1.0000
     1.0000   1.0000   1.0000   1.0000   1.0000   1.0000   1.0000   1.0000
     1.0000   1.0000   1.0000   1.0000   1.0000   1.0000   1.0000   1.0000
     1.0000   1.0000

          k =-0.0000 0.0000 0.0935 (  3667 PWs)   bands (ev):

  -113.8240-113.8235 -68.2086 -68.2024 -68.1733 -68.1733 -68.1714 -68.1714
    -8.7432  -7.6491   3.3872   3.3872   3.4785   3.4785   4.0148   4.5868
     4.6540   4.6540   5.0068   5.0068   5.6648   8.1152   8.5212   8.5212
     9.1875   9.1875

     occupation numbers 
     1.0000   1.0000   1.0000   1.0000   1.0000   1.0000   1.0000   1.0000
     1.0000   1.0000   1.0000   1.0000   1.0000   1.0000   1.0000   1.0000
     1.0000   1.0000   1.0000   1.0000   1.0000   1.0000   1.0000   1.0000
     1.0000   1.0000

          k =-0.0000 0.0000 0.1870 (  3672 PWs)   bands (ev):

  -113.8240-113.8236 -68.2079 -68.2031 -68.1731 -68.1731 -68.1716 -68.1716
    -8.6158  -7.7762   3.3724   3.3724   3.4374   3.4374   3.7680   4.3285
     4.7251   4.7251   4.9902   4.9902   6.1494   7.6909   8.6171   8.6171
     9.1297   9.1297

     occupation numbers 
     1.0000   1.0000   1.0000   1.0000   1.0000   1.0000   1.0000   1.0000
     1.0000   1.0000   1.0000   1.0000   1.0000   1.0000   1.0000   1.0000
     1.0000   1.0000   1.0000   1.0000   1.0000   1.0000   1.0000   1.0000
     1.0000   1.0000

          k =-0.0000 0.0000 0.2806 (  3708 PWs)   bands (ev):

  -113.8239-113.8237 -68.2068 -68.2043 -68.1728 -68.1728 -68.1720 -68.1720
    -8.4239  -7.9682   3.3621   3.3621   3.3949   3.3949   3.6706   4.0140
     4.8127   4.8127   4.9539   4.9539   6.6120   7.3304   8.7532   8.7532
     9.0320   9.0320

     occupation numbers 
     1.0000   1.0000   1.0000   1.0000   1.0000   1.0000   1.0000   1.0000
     1.0000   1.0000   1.0000   1.0000   1.0000   1.0000   1.0000   1.0000
     1.0000   1.0000   1.0000   1.0000   1.0000   1.0000   1.0000   1.0000
     1.0000   1.0000

          k = 0.0000-0.0000-0.3741 (  3732 PWs)   bands (ev):

  -113.8238-113.8238 -68.2056 -68.2056 -68.1724 -68.1724 -68.1724 -68.1724
    -8.1963  -8.1960   3.3679   3.3679   3.3680   3.3680   3.7646   3.7647
     4.8935   4.8935   4.8935   4.8935   6.9948   6.9949   8.9005   8.9005
     8.9007   8.9007

     occupation numbers 
     1.0000   1.0000   1.0000   1.0000   1.0000   1.0000   1.0000   1.0000
     1.0000   1.0000   1.0000   1.0000   1.0000   1.0000   1.0000   1.0000
     1.0000   1.0000   1.0000   1.0000   1.0000   1.0000   1.0000   1.0000
     1.0000   1.0000

          k =-0.0000 0.1443 0.0000 (  3692 PWs)   bands (ev):

  -113.8240-113.8235 -68.2087 -68.2023 -68.1736 -68.1735 -68.1716 -68.1713
    -8.7001  -7.5906   3.3704   3.4634   3.4637   3.6020   4.0905   4.5592
     4.6024   4.7201   5.0252   5.2720   5.3979   7.9684   8.2188   8.3465
     8.4139   9.0354

     occupation numbers 
     1.0000   1.0000   1.0000   1.0000   1.0000   1.0000   1.0000   1.0000
     1.0000   1.0000   1.0000   1.0000   1.0000   1.0000   1.0000   1.0000
     1.0000   1.0000   1.0000   1.0000   1.0000   1.0000   1.0000   1.0000
     1.0000   1.0000

          k =-0.0000 0.1443 0.0935 (  3697 PWs)   bands (ev):

  -113.8240-113.8235 -68.2084 -68.2026 -68.1734 -68.1734 -68.1717 -68.1714
    -8.6575  -7.6310   3.3509   3.4393   3.4576   3.5818   3.9624   4.4878
     4.6325   4.7197   5.0190   5.1330   5.7449   7.8504   8.0694   8.2570
     8.8100   9.0127

     occupation numbers 
     1.0000   1.0000   1.0000   1.0000   1.0000   1.0000   1.0000   1.0000
     1.0000   1.0000   1.0000   1.0000   1.0000   1.0000   1.0000   1.0000
     1.0000   1.0000   1.0000   1.0000   1.0000   1.0000   1.0000   1.0000
     1.0000   1.0000

          k =-0.0000 0.1443 0.1870 (  3707 PWs)   bands (ev):

  -113.8240-113.8236 -68.2078 -68.2033 -68.1732 -68.1732 -68.1719 -68.1717
    -8.5358  -7.7475   3.2951   3.3784   3.4457   3.5343   3.7768   4.2568
     4.7083   4.7716   4.9974   5.0608   6.2154   7.4624   8.2396   8.3632
     8.9440   9.0069

     occupation numbers 
     1.0000   1.0000   1.0000   1.0000   1.0000   1.0000   1.0000   1.0000
     1.0000   1.0000   1.0000   1.0000   1.0000   1.0000   1.0000   1.0000
     1.0000   1.0000   1.0000   1.0000   1.0000   1.0000   1.0000   1.0000
     1.0000   1.0000

          k =-0.0000 0.1443 0.2806 (  3698 PWs)   bands (ev):

  -113.8239-113.8237 -68.2067 -68.2044 -68.1729 -68.1728 -68.1722 -68.1720
    -8.3533  -7.9253   3.2428   3.3101   3.4398   3.4848   3.7100   3.9773
     4.8012   4.8550   4.9546   5.0056   6.6116   7.1673   8.5061   8.5147
     8.8303   8.9705

     occupation numbers 
     1.0000   1.0000   1.0000   1.0000   1.0000   1.0000   1.0000   1.0000
     1.0000   1.0000   1.0000   1.0000   1.0000   1.0000   1.0000   1.0000
     1.0000   1.0000   1.0000   1.0000   1.0000   1.0000   1.0000   1.0000
     1.0000   1.0000

          k = 0.0000 0.1443-0.3741 (  3708 PWs)   bands (ev):

  -113.8238-113.8238 -68.2056 -68.2055 -68.1726 -68.1725 -68.1725 -68.1724
    -8.1386  -8.1382   3.2532   3.2533   3.4512   3.4514   3.7772   3.7772
     4.8878   4.8879   4.9377   4.9377   6.9101   6.9101   8.6802   8.6804
     8.7785   8.7787

     occupation numbers 
     1.0000   1.0000   1.0000   1.0000   1.0000   1.0000   1.0000   1.0000
     1.0000   1.0000   1.0000   1.0000   1.0000   1.0000   1.0000   1.0000
     1.0000   1.0000   1.0000   1.0000   1.0000   1.0000   1.0000   1.0000
     1.0000   1.0000

          k = 0.0000 0.1443-0.2806 (  3698 PWs)   bands (ev):

  -113.8239-113.8237 -68.2067 -68.2044 -68.1729 -68.1728 -68.1722 -68.1720
    -8.3533  -7.9253   3.2428   3.3101   3.4398   3.4848   3.7100   3.9773
     4.8012   4.8550   4.9546   5.0056   6.6116   7.1673   8.5061   8.5147
     8.8303   8.9705

     occupation numbers 
     1.0000   1.0000   1.0000   1.0000   1.0000   1.0000   1.0000   1.0000
     1.0000   1.0000   1.0000   1.0000   1.0000   1.0000   1.0000   1.0000
     1.0000   1.0000   1.0000   1.0000   1.0000   1.0000   1.0000   1.0000
     1.0000   1.0000

          k = 0.0000 0.1443-0.1870 (  3707 PWs)   bands (ev):

  -113.8240-113.8236 -68.2078 -68.2033 -68.1732 -68.1732 -68.1719 -68.1717
    -8.5358  -7.7475   3.2951   3.3784   3.4457   3.5343   3.7768   4.2568
     4.7083   4.7716   4.9974   5.0608   6.2154   7.4625   8.2396   8.3632
     8.9440   9.0069

     occupation numbers 
     1.0000   1.0000   1.0000   1.0000   1.0000   1.0000   1.0000   1.0000
     1.0000   1.0000   1.0000   1.0000   1.0000   1.0000   1.0000   1.0000
     1.0000   1.0000   1.0000   1.0000   1.0000   1.0000   1.0000   1.0000
     1.0000   1.0000

          k =-0.0000 0.1443-0.0935 (  3697 PWs)   bands (ev):

  -113.8240-113.8235 -68.2084 -68.2026 -68.1734 -68.1734 -68.1717 -68.1714
    -8.6575  -7.6310   3.3509   3.4393   3.4576   3.5818   3.9624   4.4878
     4.6325   4.7197   5.0190   5.1330   5.7449   7.8504   8.0694   8.2570
     8.8100   9.0127

     occupation numbers 
     1.0000   1.0000   1.0000   1.0000   1.0000   1.0000   1.0000   1.0000
     1.0000   1.0000   1.0000   1.0000   1.0000   1.0000   1.0000   1.0000
     1.0000   1.0000   1.0000   1.0000   1.0000   1.0000   1.0000   1.0000
     1.0000   1.0000

          k =-0.0000 0.2887 0.0000 (  3718 PWs)   bands (ev):

  -113.8240-113.8235 -68.2080 -68.2030 -68.1738 -68.1737 -68.1722 -68.1714
    -8.4684  -7.5716   3.2636   3.5318   3.6720   3.8697   3.9879   4.4158
     4.5536   4.7773   5.0533   5.3504   5.8190   6.9167   7.3810   7.5862
     8.2436   8.5964

     occupation numbers 
     1.0000   1.0000   1.0000   1.0000   1.0000   1.0000   1.0000   1.0000
     1.0000   1.0000   1.0000   1.0000   1.0000   1.0000   1.0000   1.0000
     1.0000   1.0000   1.0000   1.0000   1.0000   1.0000   1.0000   1.0000
     1.0000   1.0000

          k =-0.0000 0.2887 0.0935 (  3723 PWs)   bands (ev):

  -113.8240-113.8236 -68.2078 -68.2032 -68.1738 -68.1736 -68.1723 -68.1715
    -8.4315  -7.6013   3.2356   3.4655   3.6674   3.8423   3.9162   4.3264
     4.5893   4.7964   5.0424   5.2577   6.0040   7.0254   7.2307   7.6330
     8.5101   8.5666

     occupation numbers 
     1.0000   1.0000   1.0000   1.0000   1.0000   1.0000   1.0000   1.0000
     1.0000   1.0000   1.0000   1.0000   1.0000   1.0000   1.0000   1.0000
     1.0000   1.0000   1.0000   1.0000   1.0000   1.0000   1.0000   1.0000
     1.0000   1.0000

          k =-0.0000 0.2887 0.1870 (  3715 PWs)   bands (ev):

  -113.8239-113.8236 -68.2073 -68.2038 -68.1736 -68.1734 -68.1724 -68.1718
    -8.3271  -7.6885   3.1501   3.3113   3.6585   3.7810   3.8099   4.1178
     4.6754   4.8524   5.0090   5.1639   6.2274   6.8378   7.6185   7.7627
     8.4778   8.8524

     occupation numbers 
     1.0000   1.0000   1.0000   1.0000   1.0000   1.0000   1.0000   1.0000
     1.0000   1.0000   1.0000   1.0000   1.0000   1.0000   1.0000   1.0000
     1.0000   1.0000   1.0000   1.0000   1.0000   1.0000   1.0000   1.0000
     1.0000   1.0000

          k =-0.0000 0.2887 0.2806 (  3711 PWs)   bands (ev):

  -113.8238-113.8237 -68.2065 -68.2046 -68.1732 -68.1730 -68.1726 -68.1721
    -8.1729  -7.8256   3.0587   3.1640   3.6576   3.7191   3.7614   3.9101
     4.7777   4.9331   4.9525   5.0926   6.3787   6.6456   7.9469   8.2056
     8.3343   8.9297

     occupation numbers 
     1.0000   1.0000   1.0000   1.0000   1.0000   1.0000   1.0000   1.0000
     1.0000   1.0000   1.0000   1.0000   1.0000   1.0000   1.0000   1.0000
     1.0000   1.0000   1.0000   1.0000   1.0000   1.0000   1.0000   1.0000
     1.0000   1.0000

          k = 0.0000 0.2887-0.3741 (  3692 PWs)   bands (ev):

  -113.8238-113.8237 -68.2056 -68.2055 -68.1729 -68.1729 -68.1726 -68.1725
    -7.9960  -7.9956   3.0621   3.0622   3.6760   3.6762   3.7892   3.7892
     4.8738   4.8738   5.0171   5.0171   6.5058   6.5058   8.1488   8.1491
     8.6890   8.6890

     occupation numbers 
     1.0000   1.0000   1.0000   1.0000   1.0000   1.0000   1.0000   1.0000
     1.0000   1.0000   1.0000   1.0000   1.0000   1.0000   1.0000   1.0000
     1.0000   1.0000   1.0000   1.0000   1.0000   1.0000   1.0000   1.0000
     1.0000   1.0000

          k =-0.0000 0.2887-0.2806 (  3711 PWs)   bands (ev):

  -113.8238-113.8237 -68.2065 -68.2046 -68.1732 -68.1730 -68.1726 -68.1721
    -8.1729  -7.8256   3.0587   3.1640   3.6576   3.7191   3.7615   3.9101
     4.7777   4.9331   4.9525   5.0926   6.3787   6.6456   7.9469   8.2056
     8.3343   8.9297

     occupation numbers 
     1.0000   1.0000   1.0000   1.0000   1.0000   1.0000   1.0000   1.0000
     1.0000   1.0000   1.0000   1.0000   1.0000   1.0000   1.0000   1.0000
     1.0000   1.0000   1.0000   1.0000   1.0000   1.0000   1.0000   1.0000
     1.0000   1.0000

          k =-0.0000 0.2887-0.1870 (  3715 PWs)   bands (ev):

  -113.8239-113.8236 -68.2073 -68.2038 -68.1736 -68.1734 -68.1724 -68.1718
    -8.3271  -7.6885   3.1501   3.3113   3.6585   3.7810   3.8099   4.1178
     4.6754   4.8524   5.0090   5.1639   6.2274   6.8378   7.6185   7.7627
     8.4778   8.8524

     occupation numbers 
     1.0000   1.0000   1.0000   1.0000   1.0000   1.0000   1.0000   1.0000
     1.0000   1.0000   1.0000   1.0000   1.0000   1.0000   1.0000   1.0000
     1.0000   1.0000   1.0000   1.0000   1.0000   1.0000   1.0000   1.0000
     1.0000   1.0000

          k =-0.0000 0.2887-0.0935 (  3723 PWs)   bands (ev):

  -113.8240-113.8236 -68.2078 -68.2032 -68.1738 -68.1736 -68.1723 -68.1715
    -8.4315  -7.6013   3.2356   3.4655   3.6674   3.8423   3.9162   4.3264
     4.5893   4.7964   5.0424   5.2577   6.0040   7.0254   7.2307   7.6330
     8.5102   8.5666

     occupation numbers 
     1.0000   1.0000   1.0000   1.0000   1.0000   1.0000   1.0000   1.0000
     1.0000   1.0000   1.0000   1.0000   1.0000   1.0000   1.0000   1.0000
     1.0000   1.0000   1.0000   1.0000   1.0000   1.0000   1.0000   1.0000
     1.0000   1.0000

          k =-0.0000 0.4330 0.0000 (  3716 PWs)   bands (ev):

  -113.8239-113.8236 -68.2071 -68.2038 -68.1741 -68.1739 -68.1728 -68.1714
    -8.1852  -7.5974   3.2148   3.7172   3.9447   4.0226   4.1795   4.2512
     4.5250   4.8095   5.0759   5.2113   6.0752   6.3680   6.4982   6.9216
     8.0166   8.1189

     occupation numbers 
     1.0000   1.0000   1.0000   1.0000   1.0000   1.0000   1.0000   1.0000
     1.0000   1.0000   1.0000   1.0000   1.0000   1.0000   1.0000   1.0000
     1.0000   1.0000   1.0000   1.0000   1.0000   1.0000   1.0000   1.0000
     1.0000   1.0000

          k =-0.0000 0.4330 0.0935 (  3725 PWs)   bands (ev):

  -113.8239-113.8236 -68.2070 -68.2040 -68.1741 -68.1738 -68.1728 -68.1715
    -8.1573  -7.6127   3.1742   3.6065   3.9399   3.9780   4.1403   4.1699
     4.5695   4.8358   5.0582   5.1897   5.9198   6.2876   6.8834   6.9806
     8.0839   8.2676

     occupation numbers 
     1.0000   1.0000   1.0000   1.0000   1.0000   1.0000   1.0000   1.0000
     1.0000   1.0000   1.0000   1.0000   1.0000   1.0000   1.0000   1.0000
     1.0000   1.0000   1.0000   1.0000   1.0000   1.0000   1.0000   1.0000
     1.0000   1.0000

          k =-0.0000 0.4330 0.1870 (  3707 PWs)   bands (ev):

  -113.8238-113.8236 -68.2067 -68.2043 -68.1739 -68.1736 -68.1729 -68.1718
    -8.0797  -7.6600   3.0602   3.3585   3.8840   3.9309   4.0208   4.0641
     4.6630   4.8929   5.0103   5.1451   5.8548   6.1070   7.1404   7.5909
     7.9802   8.7038

     occupation numbers 
     1.0000   1.0000   1.0000   1.0000   1.0000   1.0000   1.0000   1.0000
     1.0000   1.0000   1.0000   1.0000   1.0000   1.0000   1.0000   1.0000
     1.0000   1.0000   1.0000   1.0000   1.0000   1.0000   1.0000   1.0000
     1.0000   1.0000

          k =-0.0000 0.4330 0.2806 (  3713 PWs)   bands (ev):

  -113.8238-113.8237 -68.2062 -68.2049 -68.1736 -68.1732 -68.1730 -68.1722
    -7.9690  -7.7403   2.9492   3.1100   3.8225   3.9003   3.9299   3.9947
     4.7643   4.9419   4.9619   5.0923   5.8741   5.9921   7.3611   7.8133
     8.2786   8.9282

     occupation numbers 
     1.0000   1.0000   1.0000   1.0000   1.0000   1.0000   1.0000   1.0000
     1.0000   1.0000   1.0000   1.0000   1.0000   1.0000   1.0000   1.0000
     1.0000   1.0000   1.0000   1.0000   1.0000   1.0000   1.0000   1.0000
     1.0000   1.0000

          k =-0.0000 0.4330-0.3741 (  3726 PWs)   bands (ev):

  -113.8238-113.8237 -68.2056 -68.2056 -68.1733 -68.1733 -68.1727 -68.1727
    -7.8486  -7.8482   2.9555   2.9555   3.8307   3.8307   3.9490   3.9491
     4.8589   4.8589   5.0308   5.0308   5.9228   5.9229   7.5979   7.5982
     8.7716   8.7717

     occupation numbers 
     1.0000   1.0000   1.0000   1.0000   1.0000   1.0000   1.0000   1.0000
     1.0000   1.0000   1.0000   1.0000   1.0000   1.0000   1.0000   1.0000
     1.0000   1.0000   1.0000   1.0000   1.0000   1.0000   1.0000   1.0000
     1.0000   1.0000

          k =-0.0000 0.4330-0.2806 (  3713 PWs)   bands (ev):

  -113.8238-113.8237 -68.2062 -68.2049 -68.1736 -68.1732 -68.1730 -68.1722
    -7.9690  -7.7403   2.9492   3.1100   3.8225   3.9003   3.9299   3.9947
     4.7643   4.9419   4.9619   5.0923   5.8741   5.9921   7.3611   7.8133
     8.2786   8.9282

     occupation numbers 
     1.0000   1.0000   1.0000   1.0000   1.0000   1.0000   1.0000   1.0000
     1.0000   1.0000   1.0000   1.0000   1.0000   1.0000   1.0000   1.0000
     1.0000   1.0000   1.0000   1.0000   1.0000   1.0000   1.0000   1.0000
     1.0000   1.0000

          k =-0.0000 0.4330-0.1870 (  3707 PWs)   bands (ev):

  -113.8238-113.8236 -68.2067 -68.2043 -68.1739 -68.1736 -68.1729 -68.1718
    -8.0797  -7.6600   3.0602   3.3585   3.8840   3.9309   4.0208   4.0641
     4.6630   4.8929   5.0103   5.1451   5.8547   6.1070   7.1404   7.5909
     7.9802   8.7038

     occupation numbers 
     1.0000   1.0000   1.0000   1.0000   1.0000   1.0000   1.0000   1.0000
     1.0000   1.0000   1.0000   1.0000   1.0000   1.0000   1.0000   1.0000
     1.0000   1.0000   1.0000   1.0000   1.0000   1.0000   1.0000   1.0000
     1.0000   1.0000

          k =-0.0000 0.4330-0.0935 (  3725 PWs)   bands (ev):

  -113.8239-113.8236 -68.2070 -68.2040 -68.1741 -68.1738 -68.1728 -68.1715
    -8.1573  -7.6127   3.1742   3.6065   3.9399   3.9780   4.1403   4.1699
     4.5695   4.8358   5.0582   5.1897   5.9198   6.2876   6.8834   6.9806
     8.0839   8.2676

     occupation numbers 
     1.0000   1.0000   1.0000   1.0000   1.0000   1.0000   1.0000   1.0000
     1.0000   1.0000   1.0000   1.0000   1.0000   1.0000   1.0000   1.0000
     1.0000   1.0000   1.0000   1.0000   1.0000   1.0000   1.0000   1.0000
     1.0000   1.0000

          k = 0.0000-0.5774-0.0000 (  3710 PWs)   bands (ev):

  -113.8238-113.8236 -68.2066 -68.2043 -68.1742 -68.1740 -68.1730 -68.1715
    -8.0277  -7.6462   3.2292   3.8193   4.0835   4.1268   4.1772   4.3142
     4.5442   4.7890   5.0712   5.0840   5.8868   5.9270   6.6122   6.7560
     7.8380   7.9054

     occupation numbers 
     1.0000   1.0000   1.0000   1.0000   1.0000   1.0000   1.0000   1.0000
     1.0000   1.0000   1.0000   1.0000   1.0000   1.0000   1.0000   1.0000
     1.0000   1.0000   1.0000   1.0000   1.0000   1.0000   1.0000   1.0000
     1.0000   1.0000

          k = 0.0000-0.5774 0.0935 (  3734 PWs)   bands (ev):

  -113.8238-113.8237 -68.2065 -68.2044 -68.1742 -68.1740 -68.1731 -68.1716
    -8.0063  -7.6527   3.1789   3.7029   4.0357   4.0788   4.1424   4.2707
     4.5906   4.8195   5.0607   5.0637   5.7997   5.8239   6.6801   7.0921
     7.8685   8.1026

     occupation numbers 
     1.0000   1.0000   1.0000   1.0000   1.0000   1.0000   1.0000   1.0000
     1.0000   1.0000   1.0000   1.0000   1.0000   1.0000   1.0000   1.0000
     1.0000   1.0000   1.0000   1.0000   1.0000   1.0000   1.0000   1.0000
     1.0000   1.0000

          k = 0.0000-0.5774 0.1870 (  3720 PWs)   bands (ev):

  -113.8238-113.8237 -68.2063 -68.2047 -68.1740 -68.1736 -68.1731 -68.1718
    -7.9479  -7.6752   3.0449   3.4182   3.9030   4.0532   4.0696   4.1936
     4.6780   4.8731   5.0031   5.0429   5.6994   5.7278   6.8599   7.7434
     7.7593   8.5992

     occupation numbers 
     1.0000   1.0000   1.0000   1.0000   1.0000   1.0000   1.0000   1.0000
     1.0000   1.0000   1.0000   1.0000   1.0000   1.0000   1.0000   1.0000
     1.0000   1.0000   1.0000   1.0000   1.0000   1.0000   1.0000   1.0000
     1.0000   1.0000

          k = 0.0000-0.5774 0.2806 (  3728 PWs)   bands (ev):

  -113.8238-113.8237 -68.2060 -68.2052 -68.1737 -68.1733 -68.1732 -68.1723
    -7.8677  -7.7190   2.9237   3.1172   3.8529   3.9532   4.0673   4.1268
     4.7678   4.9241   4.9305   5.0110   5.6724   5.6924   7.1013   7.5834
     8.3873   8.9114

     occupation numbers 
     1.0000   1.0000   1.0000   1.0000   1.0000   1.0000   1.0000   1.0000
     1.0000   1.0000   1.0000   1.0000   1.0000   1.0000   1.0000   1.0000
     1.0000   1.0000   1.0000   1.0000   1.0000   1.0000   1.0000   1.0000
     1.0000   1.0000

          k = 0.0000-0.5774-0.3741 (  3732 PWs)   bands (ev):

  -113.8238-113.8237 -68.2056 -68.2056 -68.1735 -68.1735 -68.1728 -68.1727
    -7.7860  -7.7856   2.9347   2.9347   3.8783   3.8783   4.0841   4.0842
     4.8519   4.8520   4.9705   4.9705   5.6784   5.6784   7.3552   7.3555
     8.8293   8.8294

     occupation numbers 
     1.0000   1.0000   1.0000   1.0000   1.0000   1.0000   1.0000   1.0000
     1.0000   1.0000   1.0000   1.0000   1.0000   1.0000   1.0000   1.0000
     1.0000   1.0000   1.0000   1.0000   1.0000   1.0000   1.0000   1.0000
     1.0000   1.0000

          k = 0.1250 0.0722-0.0000 (  3692 PWs)   bands (ev):

  -113.8240-113.8235 -68.2087 -68.2023 -68.1736 -68.1735 -68.1716 -68.1713
    -8.7001  -7.5906   3.3704   3.4634   3.4637   3.6020   4.0905   4.5592
     4.6024   4.7201   5.0252   5.2720   5.3979   7.9684   8.2188   8.3465
     8.4139   9.0354

     occupation numbers 
     1.0000   1.0000   1.0000   1.0000   1.0000   1.0000   1.0000   1.0000
     1.0000   1.0000   1.0000   1.0000   1.0000   1.0000   1.0000   1.0000
     1.0000   1.0000   1.0000   1.0000   1.0000   1.0000   1.0000   1.0000
     1.0000   1.0000

          k = 0.1250 0.0722 0.0935 (  3697 PWs)   bands (ev):

  -113.8240-113.8235 -68.2084 -68.2026 -68.1734 -68.1734 -68.1717 -68.1714
    -8.6575  -7.6310   3.3509   3.4393   3.4576   3.5818   3.9624   4.4878
     4.6325   4.7197   5.0190   5.1330   5.7449   7.8504   8.0694   8.2570
     8.8100   9.0127

     occupation numbers 
     1.0000   1.0000   1.0000   1.0000   1.0000   1.0000   1.0000   1.0000
     1.0000   1.0000   1.0000   1.0000   1.0000   1.0000   1.0000   1.0000
     1.0000   1.0000   1.0000   1.0000   1.0000   1.0000   1.0000   1.0000
     1.0000   1.0000

          k = 0.1250 0.0722 0.1870 (  3707 PWs)   bands (ev):

  -113.8240-113.8236 -68.2078 -68.2033 -68.1732 -68.1732 -68.1719 -68.1717
    -8.5358  -7.7475   3.2951   3.3784   3.4457   3.5343   3.7768   4.2568
     4.7083   4.7716   4.9974   5.0608   6.2154   7.4625   8.2396   8.3632
     8.9440   9.0069

     occupation numbers 
     1.0000   1.0000   1.0000   1.0000   1.0000   1.0000   1.0000   1.0000
     1.0000   1.0000   1.0000   1.0000   1.0000   1.0000   1.0000   1.0000
     1.0000   1.0000   1.0000   1.0000   1.0000   1.0000   1.0000   1.0000
     1.0000   1.0000

          k = 0.1250 0.0722 0.2806 (  3698 PWs)   bands (ev):

  -113.8239-113.8237 -68.2067 -68.2044 -68.1729 -68.1728 -68.1722 -68.1720
    -8.3533  -7.9253   3.2428   3.3101   3.4398   3.4848   3.7100   3.9773
     4.8012   4.8550   4.9546   5.0056   6.6116   7.1673   8.5061   8.5147
     8.8303   8.9705

     occupation numbers 
     1.0000   1.0000   1.0000   1.0000   1.0000   1.0000   1.0000   1.0000
     1.0000   1.0000   1.0000   1.0000   1.0000   1.0000   1.0000   1.0000
     1.0000   1.0000   1.0000   1.0000   1.0000   1.0000   1.0000   1.0000
     1.0000   1.0000

          k = 0.1250 0.0722-0.3741 (  3708 PWs)   bands (ev):

  -113.8238-113.8238 -68.2056 -68.2055 -68.1726 -68.1725 -68.1725 -68.1724
    -8.1386  -8.1382   3.2532   3.2533   3.4512   3.4514   3.7772   3.7772
     4.8878   4.8879   4.9377   4.9377   6.9101   6.9101   8.6802   8.6804
     8.7785   8.7787

     occupation numbers 
     1.0000   1.0000   1.0000   1.0000   1.0000   1.0000   1.0000   1.0000
     1.0000   1.0000   1.0000   1.0000   1.0000   1.0000   1.0000   1.0000
     1.0000   1.0000   1.0000   1.0000   1.0000   1.0000   1.0000   1.0000
     1.0000   1.0000

          k = 0.1250 0.0722-0.2806 (  3698 PWs)   bands (ev):

  -113.8239-113.8237 -68.2067 -68.2044 -68.1729 -68.1728 -68.1722 -68.1720
    -8.3533  -7.9253   3.2428   3.3101   3.4398   3.4848   3.7100   3.9773
     4.8012   4.8550   4.9546   5.0056   6.6116   7.1673   8.5061   8.5147
     8.8303   8.9705

     occupation numbers 
     1.0000   1.0000   1.0000   1.0000   1.0000   1.0000   1.0000   1.0000
     1.0000   1.0000   1.0000   1.0000   1.0000   1.0000   1.0000   1.0000
     1.0000   1.0000   1.0000   1.0000   1.0000   1.0000   1.0000   1.0000
     1.0000   1.0000

          k = 0.1250 0.0722-0.1870 (  3707 PWs)   bands (ev):

  -113.8240-113.8236 -68.2078 -68.2033 -68.1732 -68.1732 -68.1719 -68.1717
    -8.5358  -7.7475   3.2951   3.3784   3.4457   3.5343   3.7768   4.2568
     4.7083   4.7716   4.9974   5.0608   6.2154   7.4624   8.2396   8.3632
     8.9440   9.0069

     occupation numbers 
     1.0000   1.0000   1.0000   1.0000   1.0000   1.0000   1.0000   1.0000
     1.0000   1.0000   1.0000   1.0000   1.0000   1.0000   1.0000   1.0000
     1.0000   1.0000   1.0000   1.0000   1.0000   1.0000   1.0000   1.0000
     1.0000   1.0000

          k = 0.1250 0.0722-0.0935 (  3697 PWs)   bands (ev):

  -113.8240-113.8235 -68.2084 -68.2026 -68.1734 -68.1734 -68.1717 -68.1714
    -8.6575  -7.6310   3.3509   3.4393   3.4576   3.5818   3.9624   4.4878
     4.6325   4.7197   5.0190   5.1330   5.7449   7.8504   8.0694   8.2570
     8.8100   9.0127

     occupation numbers 
     1.0000   1.0000   1.0000   1.0000   1.0000   1.0000   1.0000   1.0000
     1.0000   1.0000   1.0000   1.0000   1.0000   1.0000   1.0000   1.0000
     1.0000   1.0000   1.0000   1.0000   1.0000   1.0000   1.0000   1.0000
     1.0000   1.0000

          k = 0.1250 0.2165 0.0000 (  3703 PWs)   bands (ev):

  -113.8240-113.8235 -68.2082 -68.2028 -68.1737 -68.1737 -68.1720 -68.1714
    -8.5401  -7.5742   3.3457   3.4217   3.6328   3.7863   4.0098   4.4532
     4.5708   4.7613   5.0453   5.3695   5.6629   7.3211   7.4523   7.8736
     8.2884   8.6543

     occupation numbers 
     1.0000   1.0000   1.0000   1.0000   1.0000   1.0000   1.0000   1.0000
     1.0000   1.0000   1.0000   1.0000   1.0000   1.0000   1.0000   1.0000
     1.0000   1.0000   1.0000   1.0000   1.0000   1.0000   1.0000   1.0000
     1.0000   1.0000

          k = 0.1250 0.2165 0.0935 (  3713 PWs)   bands (ev):

  -113.8240-113.8236 -68.2080 -68.2030 -68.1736 -68.1736 -68.1721 -68.1715
    -8.5013  -7.6072   3.3270   3.3703   3.6230   3.7570   3.9248   4.3713
     4.6010   4.7748   5.0372   5.2423   5.9317   7.3123   7.4477   7.7746
     8.6016   8.6246

     occupation numbers 
     1.0000   1.0000   1.0000   1.0000   1.0000   1.0000   1.0000   1.0000
     1.0000   1.0000   1.0000   1.0000   1.0000   1.0000   1.0000   1.0000
     1.0000   1.0000   1.0000   1.0000   1.0000   1.0000   1.0000   1.0000
     1.0000   1.0000

          k = 0.1250 0.2165 0.1870 (  3705 PWs)   bands (ev):

  -113.8239-113.8236 -68.2074 -68.2036 -68.1734 -68.1734 -68.1722 -68.1717
    -8.3911  -7.7038   3.2353   3.2722   3.6029   3.6957   3.8010   4.1559
     4.6818   4.8290   5.0097   5.1428   6.2697   7.0390   7.8193   7.8490
     8.5361   8.9292

     occupation numbers 
     1.0000   1.0000   1.0000   1.0000   1.0000   1.0000   1.0000   1.0000
     1.0000   1.0000   1.0000   1.0000   1.0000   1.0000   1.0000   1.0000
     1.0000   1.0000   1.0000   1.0000   1.0000   1.0000   1.0000   1.0000
     1.0000   1.0000

          k = 0.1250 0.2165 0.2806 (  3712 PWs)   bands (ev):

  -113.8239-113.8237 -68.2066 -68.2045 -68.1731 -68.1730 -68.1725 -68.1721
    -8.2277  -7.8540   3.1219   3.1888   3.5916   3.6411   3.7479   3.9261
     4.7820   4.9042   4.9640   5.0729   6.5003   6.8291   8.0162   8.3143
     8.3972   8.9835

     occupation numbers 
     1.0000   1.0000   1.0000   1.0000   1.0000   1.0000   1.0000   1.0000
     1.0000   1.0000   1.0000   1.0000   1.0000   1.0000   1.0000   1.0000
     1.0000   1.0000   1.0000   1.0000   1.0000   1.0000   1.0000   1.0000
     1.0000   1.0000

          k = 0.1250 0.2165-0.3741 (  3694 PWs)   bands (ev):

  -113.8238-113.8237 -68.2056 -68.2055 -68.1728 -68.1728 -68.1726 -68.1725
    -8.0383  -8.0380   3.1147   3.1148   3.6035   3.6036   3.7847   3.7848
     4.8748   4.8749   5.0008   5.0008   6.6672   6.6672   8.2103   8.2106
     8.7530   8.7531

     occupation numbers 
     1.0000   1.0000   1.0000   1.0000   1.0000   1.0000   1.0000   1.0000
     1.0000   1.0000   1.0000   1.0000   1.0000   1.0000   1.0000   1.0000
     1.0000   1.0000   1.0000   1.0000   1.0000   1.0000   1.0000   1.0000
     1.0000   1.0000

          k = 0.1250 0.2165-0.2806 (  3712 PWs)   bands (ev):

  -113.8239-113.8237 -68.2066 -68.2045 -68.1731 -68.1730 -68.1725 -68.1721
    -8.2277  -7.8540   3.1219   3.1888   3.5916   3.6411   3.7479   3.9261
     4.7820   4.9042   4.9640   5.0729   6.5003   6.8291   8.0162   8.3143
     8.3972   8.9835

     occupation numbers 
     1.0000   1.0000   1.0000   1.0000   1.0000   1.0000   1.0000   1.0000
     1.0000   1.0000   1.0000   1.0000   1.0000   1.0000   1.0000   1.0000
     1.0000   1.0000   1.0000   1.0000   1.0000   1.0000   1.0000   1.0000
     1.0000   1.0000

          k = 0.1250 0.2165-0.1870 (  3705 PWs)   bands (ev):

  -113.8239-113.8236 -68.2074 -68.2036 -68.1734 -68.1734 -68.1722 -68.1717
    -8.3911  -7.7038   3.2353   3.2722   3.6029   3.6957   3.8010   4.1559
     4.6818   4.8290   5.0097   5.1428   6.2697   7.0390   7.8193   7.8490
     8.5361   8.9292

     occupation numbers 
     1.0000   1.0000   1.0000   1.0000   1.0000   1.0000   1.0000   1.0000
     1.0000   1.0000   1.0000   1.0000   1.0000   1.0000   1.0000   1.0000
     1.0000   1.0000   1.0000   1.0000   1.0000   1.0000   1.0000   1.0000
     1.0000   1.0000

          k = 0.1250 0.2165-0.0935 (  3713 PWs)   bands (ev):

  -113.8240-113.8236 -68.2080 -68.2030 -68.1736 -68.1736 -68.1721 -68.1715
    -8.5013  -7.6072   3.3270   3.3703   3.6230   3.7570   3.9248   4.3713
     4.6010   4.7748   5.0372   5.2423   5.9317   7.3123   7.4477   7.7746
     8.6016   8.6246

     occupation numbers 
     1.0000   1.0000   1.0000   1.0000   1.0000   1.0000   1.0000   1.0000
     1.0000   1.0000   1.0000   1.0000   1.0000   1.0000   1.0000   1.0000
     1.0000   1.0000   1.0000   1.0000   1.0000   1.0000   1.0000   1.0000
     1.0000   1.0000

          k = 0.1250 0.3608 0.0000 (  3717 PWs)   bands (ev):

  -113.8239-113.8236 -68.2074 -68.2035 -68.1741 -68.1738 -68.1725 -68.1715
    -8.2787  -7.5807   3.3052   3.5811   3.8684   3.9579   4.1315   4.3101
     4.5163   4.8022   5.0703   5.2871   6.1904   6.4379   6.7060   7.0373
     8.0816   8.1045

     occupation numbers 
     1.0000   1.0000   1.0000   1.0000   1.0000   1.0000   1.0000   1.0000
     1.0000   1.0000   1.0000   1.0000   1.0000   1.0000   1.0000   1.0000
     1.0000   1.0000   1.0000   1.0000   1.0000   1.0000   1.0000   1.0000
     1.0000   1.0000

          k = 0.1250 0.3608 0.0935 (  3717 PWs)   bands (ev):

  -113.8239-113.8236 -68.2073 -68.2037 -68.1740 -68.1738 -68.1726 -68.1716
    -8.2476  -7.6010   3.2715   3.4946   3.8583   3.9130   4.0810   4.2252
     4.5592   4.8236   5.0580   5.2460   6.0747   6.5691   6.8695   7.0538
     8.0363   8.3817

     occupation numbers 
     1.0000   1.0000   1.0000   1.0000   1.0000   1.0000   1.0000   1.0000
     1.0000   1.0000   1.0000   1.0000   1.0000   1.0000   1.0000   1.0000
     1.0000   1.0000   1.0000   1.0000   1.0000   1.0000   1.0000   1.0000
     1.0000   1.0000

[...]

  -113.8238-113.8237 -68.2063 -68.2047 -68.1740 -68.1736 -68.1729 -68.1721
    -7.9575  -7.6694   3.3468   3.3631   3.9219   3.9592   4.0872   4.1782
     4.6686   4.8112   5.0609   5.1435   5.8426   5.9707   6.1735   7.1330
     7.9493   8.6811

     occupation numbers 
     1.0000   1.0000   1.0000   1.0000   1.0000   1.0000   1.0000   1.0000
     1.0000   1.0000   1.0000   1.0000   1.0000   1.0000   1.0000   1.0000
     1.0000   1.0000   1.0000   1.0000   1.0000   1.0000   1.0000   1.0000
     1.0000   1.0000

          k =-0.5000 0.0000 0.2806 (  3708 PWs)   bands (ev):

  -113.8238-113.8237 -68.2060 -68.2051 -68.1736 -68.1734 -68.1730 -68.1725
    -7.8742  -7.7171   3.1223   3.1679   3.8807   3.8821   4.0610   4.1053
     4.7354   4.8098   5.0619   5.1100   5.8430   5.9181   6.3800   6.9182
     8.6359   9.0614

     occupation numbers 
     1.0000   1.0000   1.0000   1.0000   1.0000   1.0000   1.0000   1.0000
     1.0000   1.0000   1.0000   1.0000   1.0000   1.0000   1.0000   1.0000
     1.0000   1.0000   1.0000   1.0000   1.0000   1.0000   1.0000   1.0000
     1.0000   1.0000

          k =-0.5000 0.0000-0.3741 (  3706 PWs)   bands (ev):

  -113.8238-113.8237 -68.2056 -68.2056 -68.1733 -68.1732 -68.1729 -68.1729
    -7.7884  -7.7881   3.0588   3.0588   3.8628   3.8629   4.0654   4.0655
     4.7839   4.7839   5.0808   5.0808   5.8729   5.8730   6.6532   6.6534
     9.0544   9.0545

     occupation numbers 
     1.0000   1.0000   1.0000   1.0000   1.0000   1.0000   1.0000   1.0000
     1.0000   1.0000   1.0000   1.0000   1.0000   1.0000   1.0000   1.0000
     1.0000   1.0000   1.0000   1.0000   1.0000   1.0000   1.0000   1.0000
     1.0000   1.0000

          k =-0.5000 0.0000-0.2806 (  3708 PWs)   bands (ev):

  -113.8238-113.8237 -68.2060 -68.2051 -68.1736 -68.1734 -68.1730 -68.1725
    -7.8742  -7.7171   3.1223   3.1679   3.8807   3.8821   4.0610   4.1053
     4.7354   4.8098   5.0619   5.1100   5.8430   5.9181   6.3800   6.9182
     8.6359   9.0614

     occupation numbers 
     1.0000   1.0000   1.0000   1.0000   1.0000   1.0000   1.0000   1.0000
     1.0000   1.0000   1.0000   1.0000   1.0000   1.0000   1.0000   1.0000
     1.0000   1.0000   1.0000   1.0000   1.0000   1.0000   1.0000   1.0000
     1.0000   1.0000

          k =-0.5000 0.0000-0.1870 (  3726 PWs)   bands (ev):

  -113.8238-113.8237 -68.2063 -68.2047 -68.1740 -68.1736 -68.1729 -68.1721
    -7.9575  -7.6694   3.3468   3.3631   3.9219   3.9592   4.0872   4.1782
     4.6686   4.8112   5.0609   5.1435   5.8426   5.9707   6.1735   7.1330
     7.9493   8.6811

     occupation numbers 
     1.0000   1.0000   1.0000   1.0000   1.0000   1.0000   1.0000   1.0000
     1.0000   1.0000   1.0000   1.0000   1.0000   1.0000   1.0000   1.0000
     1.0000   1.0000   1.0000   1.0000   1.0000   1.0000   1.0000   1.0000
     1.0000   1.0000

          k =-0.5000 0.0000-0.0935 (  3721 PWs)   bands (ev):

  -113.8238-113.8236 -68.2065 -68.2044 -68.1743 -68.1737 -68.1729 -68.1718
    -8.0180  -7.6443   3.5071   3.6068   3.9786   4.0573   4.1587   4.2724
     4.5936   4.7941   5.0767   5.1738   5.8870   5.9266   6.2535   7.1510
     7.3341   8.1359

     occupation numbers 
     1.0000   1.0000   1.0000   1.0000   1.0000   1.0000   1.0000   1.0000
     1.0000   1.0000   1.0000   1.0000   1.0000   1.0000   1.0000   1.0000
     1.0000   1.0000   1.0000   1.0000   1.0000   1.0000   1.0000   1.0000
     1.0000   1.0000

          k =-0.5000 0.1443 0.0000 (  3715 PWs)   bands (ev):

  -113.8238-113.8236 -68.2066 -68.2043 -68.1744 -68.1739 -68.1730 -68.1715
    -8.0340  -7.6414   3.3549   3.8017   4.0694   4.0803   4.1843   4.3492
     4.5405   4.7836   5.0858   5.1185   5.8677   6.0539   6.3978   6.7728
     7.6559   7.8374

     occupation numbers 
     1.0000   1.0000   1.0000   1.0000   1.0000   1.0000   1.0000   1.0000
     1.0000   1.0000   1.0000   1.0000   1.0000   1.0000   1.0000   1.0000
     1.0000   1.0000   1.0000   1.0000   1.0000   1.0000   1.0000   1.0000
     1.0000   1.0000

          k =-0.5000 0.1443 0.0935 (  3718 PWs)   bands (ev):

  -113.8238-113.8236 -68.2065 -68.2044 -68.1743 -68.1738 -68.1730 -68.1717
    -8.0122  -7.6484   3.3029   3.6919   4.0158   4.0670   4.1284   4.2896
     4.5898   4.8052   5.0684   5.1101   5.7951   5.9706   6.3784   7.1649
     7.5973   8.1282

     occupation numbers 
     1.0000   1.0000   1.0000   1.0000   1.0000   1.0000   1.0000   1.0000
     1.0000   1.0000   1.0000   1.0000   1.0000   1.0000   1.0000   1.0000
     1.0000   1.0000   1.0000   1.0000   1.0000   1.0000   1.0000   1.0000
     1.0000   1.0000

          k =-0.5000 0.1443 0.1870 (  3707 PWs)   bands (ev):

  -113.8238-113.8237 -68.2063 -68.2047 -68.1740 -68.1736 -68.1730 -68.1719
    -7.9528  -7.6722   3.1549   3.4270   3.9070   4.0099   4.0769   4.1935
     4.6730   4.8385   5.0336   5.0878   5.7307   5.8477   6.5159   7.4587
     7.8699   8.6502

     occupation numbers 
     1.0000   1.0000   1.0000   1.0000   1.0000   1.0000   1.0000   1.0000
     1.0000   1.0000   1.0000   1.0000   1.0000   1.0000   1.0000   1.0000
     1.0000   1.0000   1.0000   1.0000   1.0000   1.0000   1.0000   1.0000
     1.0000   1.0000

          k =-0.5000 0.1443 0.2806 (  3721 PWs)   bands (ev):

  -113.8238-113.8237 -68.2060 -68.2052 -68.1737 -68.1733 -68.1731 -68.1723
    -7.8710  -7.7180   3.0085   3.1526   3.8560   3.9303   4.0638   4.1189
     4.7510   4.8463   5.0148   5.0581   5.7286   5.7821   6.7502   7.2607
     8.5332   9.0001

     occupation numbers 
     1.0000   1.0000   1.0000   1.0000   1.0000   1.0000   1.0000   1.0000
     1.0000   1.0000   1.0000   1.0000   1.0000   1.0000   1.0000   1.0000
     1.0000   1.0000   1.0000   1.0000   1.0000   1.0000   1.0000   1.0000
     1.0000   1.0000

          k =-0.5000 0.1443-0.3741 (  3720 PWs)   bands (ev):

  -113.8238-113.8237 -68.2056 -68.2056 -68.1734 -68.1734 -68.1728 -68.1728
    -7.7872  -7.7869   2.9946   2.9946   3.8714   3.8714   4.0760   4.0761
     4.8127   4.8128   5.0286   5.0287   5.7498   5.7499   7.0131   7.0133
     8.9601   8.9602

     occupation numbers 
     1.0000   1.0000   1.0000   1.0000   1.0000   1.0000   1.0000   1.0000
     1.0000   1.0000   1.0000   1.0000   1.0000   1.0000   1.0000   1.0000
     1.0000   1.0000   1.0000   1.0000   1.0000   1.0000   1.0000   1.0000
     1.0000   1.0000

          k =-0.5000 0.1443-0.2806 (  3721 PWs)   bands (ev):

  -113.8238-113.8237 -68.2060 -68.2052 -68.1737 -68.1733 -68.1731 -68.1723
    -7.8710  -7.7180   3.0085   3.1526   3.8560   3.9303   4.0638   4.1189
     4.7510   4.8463   5.0148   5.0581   5.7286   5.7821   6.7502   7.2607
     8.5332   9.0001

     occupation numbers 
     1.0000   1.0000   1.0000   1.0000   1.0000   1.0000   1.0000   1.0000
     1.0000   1.0000   1.0000   1.0000   1.0000   1.0000   1.0000   1.0000
     1.0000   1.0000   1.0000   1.0000   1.0000   1.0000   1.0000   1.0000
     1.0000   1.0000

          k =-0.5000 0.1443-0.1870 (  3707 PWs)   bands (ev):

  -113.8238-113.8237 -68.2063 -68.2047 -68.1740 -68.1736 -68.1730 -68.1719
    -7.9528  -7.6722   3.1549   3.4270   3.9070   4.0099   4.0769   4.1935
     4.6730   4.8385   5.0336   5.0878   5.7307   5.8477   6.5159   7.4587
     7.8699   8.6502

     occupation numbers 
     1.0000   1.0000   1.0000   1.0000   1.0000   1.0000   1.0000   1.0000
     1.0000   1.0000   1.0000   1.0000   1.0000   1.0000   1.0000   1.0000
     1.0000   1.0000   1.0000   1.0000   1.0000   1.0000   1.0000   1.0000
     1.0000   1.0000

          k =-0.5000 0.1443-0.0935 (  3718 PWs)   bands (ev):

  -113.8238-113.8236 -68.2065 -68.2044 -68.1743 -68.1738 -68.1730 -68.1717
    -8.0122  -7.6484   3.3029   3.6919   4.0158   4.0670   4.1284   4.2896
     4.5898   4.8052   5.0684   5.1101   5.7951   5.9706   6.3784   7.1649
     7.5973   8.1283

     occupation numbers 
     1.0000   1.0000   1.0000   1.0000   1.0000   1.0000   1.0000   1.0000
     1.0000   1.0000   1.0000   1.0000   1.0000   1.0000   1.0000   1.0000
     1.0000   1.0000   1.0000   1.0000   1.0000   1.0000   1.0000   1.0000
     1.0000   1.0000

          k =-0.5000-0.8660-0.0000 (  3710 PWs)   bands (ev):

  -113.8238-113.8236 -68.2066 -68.2043 -68.1742 -68.1740 -68.1730 -68.1715
    -8.0277  -7.6462   3.2292   3.8193   4.0835   4.1268   4.1772   4.3142
     4.5442   4.7890   5.0712   5.0840   5.8868   5.9270   6.6122   6.7560
     7.8380   7.9053

     occupation numbers 
     1.0000   1.0000   1.0000   1.0000   1.0000   1.0000   1.0000   1.0000
     1.0000   1.0000   1.0000   1.0000   1.0000   1.0000   1.0000   1.0000
     1.0000   1.0000   1.0000   1.0000   1.0000   1.0000   1.0000   1.0000
     1.0000   1.0000

          k =-0.5000-0.8660 0.0935 (  3734 PWs)   bands (ev):

  -113.8238-113.8237 -68.2065 -68.2044 -68.1742 -68.1740 -68.1731 -68.1716
    -8.0063  -7.6527   3.1789   3.7029   4.0357   4.0788   4.1424   4.2707
     4.5905   4.8195   5.0607   5.0637   5.7997   5.8239   6.6801   7.0922
     7.8685   8.1026

     occupation numbers 
     1.0000   1.0000   1.0000   1.0000   1.0000   1.0000   1.0000   1.0000
     1.0000   1.0000   1.0000   1.0000   1.0000   1.0000   1.0000   1.0000
     1.0000   1.0000   1.0000   1.0000   1.0000   1.0000   1.0000   1.0000
     1.0000   1.0000

          k =-0.5000-0.8660 0.1870 (  3720 PWs)   bands (ev):

  -113.8238-113.8237 -68.2063 -68.2047 -68.1740 -68.1736 -68.1731 -68.1718
    -7.9479  -7.6752   3.0449   3.4182   3.9030   4.0532   4.0696   4.1936
     4.6780   4.8731   5.0031   5.0429   5.6994   5.7278   6.8599   7.7434
     7.7593   8.5992

     occupation numbers 
     1.0000   1.0000   1.0000   1.0000   1.0000   1.0000   1.0000   1.0000
     1.0000   1.0000   1.0000   1.0000   1.0000   1.0000   1.0000   1.0000
     1.0000   1.0000   1.0000   1.0000   1.0000   1.0000   1.0000   1.0000
     1.0000   1.0000

          k =-0.5000-0.8660 0.2806 (  3728 PWs)   bands (ev):

  -113.8238-113.8237 -68.2060 -68.2052 -68.1737 -68.1733 -68.1732 -68.1723
    -7.8677  -7.7190   2.9237   3.1172   3.8529   3.9532   4.0673   4.1268
     4.7678   4.9241   4.9305   5.0110   5.6724   5.6924   7.1013   7.5834
     8.3873   8.9114

     occupation numbers 
     1.0000   1.0000   1.0000   1.0000   1.0000   1.0000   1.0000   1.0000
     1.0000   1.0000   1.0000   1.0000   1.0000   1.0000   1.0000   1.0000
     1.0000   1.0000   1.0000   1.0000   1.0000   1.0000   1.0000   1.0000
     1.0000   1.0000

          k =-0.5000-0.8660-0.3741 (  3732 PWs)   bands (ev):

  -113.8238-113.8237 -68.2056 -68.2056 -68.1735 -68.1735 -68.1728 -68.1727
    -7.7860  -7.7856   2.9347   2.9347   3.8783   3.8783   4.0841   4.0842
     4.8519   4.8520   4.9705   4.9705   5.6784   5.6784   7.3552   7.3555
     8.8293   8.8294

     occupation numbers 
     1.0000   1.0000   1.0000   1.0000   1.0000   1.0000   1.0000   1.0000
     1.0000   1.0000   1.0000   1.0000   1.0000   1.0000   1.0000   1.0000
     1.0000   1.0000   1.0000   1.0000   1.0000   1.0000   1.0000   1.0000
     1.0000   1.0000

     highest occupied level (ev):     9.2064

!    total energy              =    -987.06305203 Ry
     Harris-Foulkes estimate   =    -987.06305205 Ry
     estimated scf accuracy    <       0.00000007 Ry

     The total energy is the sum of the following terms:

     one-electron contribution =    -791.47359550 Ry
     hartree contribution      =     418.19148762 Ry
     xc contribution           =     -98.10018389 Ry
     ewald contribution        =    -515.68076025 Ry

     convergence has been achieved in   7 iterations

     Forces acting on atoms (cartesian axes, Ry/au):

     atom    1 type  2   force =     0.00000069   -0.00000084   -0.00273118
     atom    2 type  2   force =     0.00000115    0.00000045   -0.00273306
     atom    3 type  1   force =    -0.00000332    0.00000091    0.00273740
     atom    4 type  1   force =     0.00000147   -0.00000052    0.00272684
     The non-local contrib.  to forces
     atom    1 type  2   force =     0.00000030   -0.00000338   -0.04181649
     atom    2 type  2   force =     0.00000085    0.00000006   -0.04181455
     atom    3 type  1   force =     0.00000346   -0.00000678   -0.09657750
     atom    4 type  1   force =    -0.00000074   -0.00000118   -0.09658003
     The ionic contribution  to forces
     atom    1 type  2   force =     0.00000476    0.00003709    0.57695119
     atom    2 type  2   force =    -0.00002298    0.00001591    0.57695230
     atom    3 type  1   force =     0.00003081   -0.00002762   -0.57694697
     atom    4 type  1   force =    -0.00001259   -0.00002538   -0.57695652
     The local contribution  to forces
     atom    1 type  2   force =    -0.00000410   -0.00003310   -0.53816710
     atom    2 type  2   force =     0.00002062   -0.00001455   -0.53816900
     atom    3 type  1   force =    -0.00003136    0.00003395    0.67634557
     atom    4 type  1   force =     0.00001220    0.00002601    0.67636730
     The core correction contribution to forces
     atom    1 type  2   force =     0.00000000    0.00000002    0.00022109
     atom    2 type  2   force =    -0.00000000   -0.00000001    0.00022106
     atom    3 type  1   force =     0.00000000    0.00000000    0.00000000
     atom    4 type  1   force =     0.00000000    0.00000000    0.00000000
     The Hubbard contrib.    to forces
     atom    1 type  2   force =     0.00000000    0.00000000    0.00000000
     atom    2 type  2   force =     0.00000000    0.00000000    0.00000000
     atom    3 type  1   force =     0.00000000    0.00000000    0.00000000
     atom    4 type  1   force =     0.00000000    0.00000000    0.00000000
     The SCF correction term to forces
     atom    1 type  2   force =     0.00000000    0.00000000    0.00000000
     atom    2 type  2   force =     0.00000000    0.00000000    0.00000000
     atom    3 type  1   force =     0.00000000    0.00000000    0.00000000
     atom    4 type  1   force =     0.00000000    0.00000000    0.00000000

     Total force =     0.000000     Total SCF correction =     0.000000


     Computing stress (Cartesian axis) and pressure

          total   stress  (Ry/bohr**3)                   (kbar)     P=   -2.56
  -0.00001118  -0.00000000  -0.00000001         -1.65     -0.00     -0.00
  -0.00000000  -0.00001119   0.00000000         -0.00     -1.65      0.00
  -0.00000001   0.00000000  -0.00002982         -0.00      0.00     -4.39

     kinetic stress (kbar)  35037.48     -0.00     -0.00
                               -0.00  35037.48      0.00
                               -0.00      0.00  35428.17

     local   stress (kbar)   2046.15     -0.01     -0.02
                               -0.01   2045.96      0.02
                               -0.02      0.02 -12774.14

     nonloc. stress (kbar)  -1731.15      0.00      0.00
                                0.00  -1731.15     -0.00
                                0.00     -0.00  -1876.19

     hartree stress (kbar)  64132.65      0.01      0.01
                                0.01  64132.74     -0.01
                                0.01     -0.01  71890.95

     exc-cor stress (kbar) -14683.33      0.00      0.00
                                0.00 -14683.33     -0.00
                                0.00     -0.00 -14687.74

     corecor stress (kbar)   -258.17      0.00      0.00
                                0.00   -258.17     -0.00
                                0.00     -0.00   -258.88

     ewald   stress (kbar) -84545.28      0.01      0.01
                                0.01 -84545.17     -0.01
                                0.01     -0.01 -77726.56

     hubbard stress (kbar)      0.00      0.00      0.00
                                0.00      0.00      0.00
                                0.00      0.00      0.00

     london  stress (kbar)      0.00      0.00      0.00
                                0.00      0.00      0.00
                                0.00      0.00      0.00

     DFT-D3  stress (kbar)      0.00      0.00      0.00
                                0.00      0.00      0.00
                                0.00      0.00      0.00

     XDM     stress (kbar)      0.00      0.00      0.00
                                0.00      0.00      0.00
                                0.00      0.00      0.00

     dft-nl  stress (kbar)      0.00      0.00      0.00
                                0.00      0.00      0.00
                                0.00      0.00      0.00

     TS-vdW  stress (kbar)      0.00      0.00      0.00
                                0.00      0.00      0.00
                                0.00      0.00      0.00



     Writing output data file ZnO.save/
 
     init_run     :      0.61s CPU      1.78s WALL (       1 calls)
     electrons    :      7.17s CPU      7.85s WALL (       1 calls)
     forces       :      0.15s CPU      0.29s WALL (       1 calls)
     stress       :      0.27s CPU      0.52s WALL (       1 calls)

     Called by init_run:
     wfcinit      :      0.46s CPU      1.27s WALL (       1 calls)
     wfcinit:atom :      0.00s CPU      0.01s WALL (      65 calls)
     wfcinit:wfcr :      0.44s CPU      1.23s WALL (      65 calls)
     potinit      :      0.06s CPU      0.14s WALL (       1 calls)
     hinit0       :      0.07s CPU      0.18s WALL (       1 calls)

     Called by electrons:
     c_bands      :      6.03s CPU      6.46s WALL (       7 calls)
     sum_band     :      0.87s CPU      0.97s WALL (       7 calls)
     v_of_rho     :      0.25s CPU      0.31s WALL (       8 calls)
     v_h          :      0.00s CPU      0.00s WALL (       8 calls)
     v_xc         :      0.31s CPU      0.33s WALL (      10 calls)
     newd         :      0.03s CPU      0.06s WALL (       8 calls)
     mix_rho      :      0.01s CPU      0.02s WALL (       7 calls)

     Called by c_bands:
     init_us_2    :      0.07s CPU      0.08s WALL (    1105 calls)
     cegterg      :      5.67s CPU      5.92s WALL (     455 calls)

     Called by sum_band:
     sum_band:bec :      0.01s CPU      0.01s WALL (     455 calls)
     addusdens    :      0.03s CPU      0.04s WALL (       7 calls)

     Called by *egterg:
     h_psi        :      3.61s CPU      3.74s WALL (    1488 calls)
     s_psi        :      0.11s CPU      0.12s WALL (    1488 calls)
     g_psi        :      0.01s CPU      0.01s WALL (     968 calls)
     cdiaghg      :      1.53s CPU      2.34s WALL (    1423 calls)
     cegterg:over :      0.35s CPU      0.40s WALL (     968 calls)
     cegterg:upda :      0.19s CPU      0.20s WALL (     968 calls)
     cegterg:last :      0.13s CPU      0.13s WALL (     455 calls)
     cdiaghg:chol :      0.15s CPU      0.51s WALL (    1423 calls)
     cdiaghg:inve :      0.02s CPU      0.09s WALL (    1423 calls)
     cdiaghg:para :      0.15s CPU      0.16s WALL (    2846 calls)

     Called by h_psi:
     h_psi:pot    :      3.60s CPU      3.73s WALL (    1488 calls)
     h_psi:calbec :      0.20s CPU      0.21s WALL (    1488 calls)
     vloc_psi     :      3.28s CPU      3.40s WALL (    1488 calls)
     add_vuspsi   :      0.11s CPU      0.12s WALL (    1488 calls)

     General routines
     calbec       :      0.32s CPU      0.33s WALL (    2268 calls)
     fft          :      0.04s CPU      0.09s WALL (     127 calls)
     ffts         :      0.00s CPU      0.00s WALL (      15 calls)
     fftw         :      3.75s CPU      3.88s WALL (   74400 calls)
     interpolate  :      0.00s CPU      0.00s WALL (       8 calls)
 
     Parallel routines
     fft_scatt_xy :      0.60s CPU      0.62s WALL (   74542 calls)
     fft_scatt_yz :      1.88s CPU      1.95s WALL (   74542 calls)
 
     PWSCF        :      8.54s CPU     12.51s WALL

 
   This run was terminated on:  20:46:30  15Jun2022            

=------------------------------------------------------------------------------=
   JOB DONE.
=------------------------------------------------------------------------------=
