
     Program PWSCF v.6.4.1 starts on 16Jun2022 at 16:19:41 

     This program is part of the open-source Quantum ESPRESSO suite
     for quantum simulation of materials; please cite
         "P. Giannozzi et al., J. Phys.:Condens. Matter 21 395502 (2009);
         "P. Giannozzi et al., J. Phys.:Condens. Matter 29 465901 (2017);
          URL http://www.quantum-espresso.org", 
     in publications or presentations arising from this work. More details at
     http://www.quantum-espresso.org/quote

     Parallel version (MPI), running on    64 processors

     MPI processes distributed on     1 nodes
     K-points division:     npool     =       4
     R & G space division:  proc/nbgrp/npool/nimage =      16
     Waiting for input...
     Reading input from standard input
Warning: card &IONS ignored
Warning: card   UPSCALE           = 100.D0, ignored
Warning: card / ignored
Warning: card &CELL ignored
Warning: card   CELL_DYNAMICS     = 'BFGS' ignored
Warning: card   PRESS_CONV_THR    = 0.5D0 ignored
Warning: card   CELL_DOFREE = 'ALL' ignored
Warning: card / ignored

     Current dimensions of program PWSCF are:
     Max number of different atomic species (ntypx) = 10
     Max number of k-points (npk) =  40000
     Max angular momentum in pseudopotentials (lmaxx) =  3

     Subspace diagonalization in iterative solution of the eigenvalue problem:
     one sub-group per band group will be used
     scalapack distributed-memory algorithm (size of sub-group:  2*  2 procs)

 
     Parallelization info
     --------------------
     sticks:   dense  smooth     PW     G-vecs:    dense   smooth      PW
     Min         110      58     18                 4711     1830     318
     Max         112      59     19                 4714     1835     322
     Sum        1765     931    295                75401    29309    5133
 


     bravais-lattice index     =            0
     lattice parameter (alat)  =       6.5192  a.u.
     unit-cell volume          =     303.9863 (a.u.)^3
     number of atoms/cell      =            4
     number of atomic types    =            2
     number of electrons       =        32.00
     number of Kohn-Sham states=           16
     kinetic-energy cutoff     =      80.0000  Ry
     charge density cutoff     =     600.0000  Ry
     convergence threshold     =      1.0E-06
     mixing beta               =       0.5000
     number of iterations used =            8  plain     mixing
     Exchange-correlation      = SLA  PW   PSX  PSC ( 1  4 10  8 0 0)
     Using LIBXC version       =    4   3   4

     celldm(1)=   6.519181  celldm(2)=   0.000000  celldm(3)=   0.000000
     celldm(4)=   0.000000  celldm(5)=   0.000000  celldm(6)=   0.000000

     crystal axes: (cart. coord. in units of alat)
               a(1) = (   1.000000   0.000000  -0.000000 )  
               a(2) = (  -0.500000   0.866025   0.000000 )  
               a(3) = (  -0.000000   0.000000   1.266905 )  

     reciprocal axes: (cart. coord. in units 2 pi/alat)
               b(1) = (  1.000000  0.577350  0.000000 )  
               b(2) = ( -0.000000  1.154700 -0.000000 )  
               b(3) = (  0.000000 -0.000000  0.789325 )  


     PseudoPot. # 1 for Mg read from file:
     ./GBRV_PBEsol/mg_pbesol_v1.4.uspp.F.UPF
     MD5 check sum: 4059f37963cf5867752dbf5ab2400678
     Pseudo is Ultrasoft, Zval = 10.0
     Generated by new atomic code, or converted to UPF format
     Using radial grid of  821 points,  7 beta functions with: 
                l(1) =   0
                l(2) =   0
                l(3) =   0
                l(4) =   1
                l(5) =   1
                l(6) =   2
                l(7) =   2
     Q(r) pseudized with  8 coefficients,  rinner =    1.200   1.200   1.200
                                                       1.200   1.200

     PseudoPot. # 2 for O  read from file:
     ./GBRV_PBEsol/o_pbesol_v1.2.uspp.F.UPF
     MD5 check sum: 501638753501ef6325af9037351f7734
     Pseudo is Ultrasoft + core correction, Zval =  6.0
     Generated by new atomic code, or converted to UPF format
     Using radial grid of  737 points,  5 beta functions with: 
                l(1) =   0
                l(2) =   0
                l(3) =   1
                l(4) =   1
                l(5) =   2
     Q(r) pseudized with  8 coefficients,  rinner =    0.900   0.900   0.900
                                                       0.900   0.900

     atomic species   valence    mass     pseudopotential
        Mg            10.00    24.30500     Mg( 1.00)
        O              6.00    15.99900     O ( 1.00)

     No symmetry found


                                    s                        frac. trans.

      isym =  1     identity                                     

 cryst.   s( 1) = (     1          0          0      )
                  (     0          1          0      )
                  (     0          0          1      )

 cart.    s( 1) = (  1.0000000  0.0000000 -0.0000000 )
                  (  0.0000000  1.0000000  0.0000000 )
                  (  0.0000000 -0.0000000  1.0000000 )


   Cartesian axes

     site n.     atom                  positions (alat units)
         1           O   tau(   1) = (   0.5000002   0.2886755   0.0093065  )
         2           O   tau(   2) = (  -0.0000001   0.5773496   0.6427591  )
         3           Mg  tau(   3) = (   0.4999998   0.2886749   0.5908264  )
         4           Mg  tau(   4) = (  -0.0000006   0.5773514   1.2242791  )

   Crystallographic axes

     site n.     atom                  positions (cryst. coord.)
         1           O   tau(   1) = (  0.6666670  0.3333337  0.0073459  )
         2           O   tau(   2) = (  0.3333329  0.6666657  0.5073458  )
         3           Mg  tau(   3) = (  0.6666664  0.3333329  0.4663540  )
         4           Mg  tau(   4) = (  0.3333336  0.6666677  0.9663539  )

     number of k points=   260
                       cart. coord. in units 2pi/alat
        k(    1) = (   0.0000000   0.0000000   0.0000000), wk =   0.0039062
        k(    2) = (   0.0000000  -0.0000000   0.0986656), wk =   0.0078125
        k(    3) = (   0.0000000  -0.0000000   0.1973312), wk =   0.0078125
        k(    4) = (   0.0000000  -0.0000000   0.2959968), wk =   0.0078125
        k(    5) = (  -0.0000000   0.0000000  -0.3946625), wk =   0.0039062
        k(    6) = (  -0.0000000   0.1443376  -0.0000000), wk =   0.0078125
        k(    7) = (  -0.0000000   0.1443375   0.0986656), wk =   0.0078125
        k(    8) = (   0.0000000   0.1443375   0.1973312), wk =   0.0078125
        k(    9) = (   0.0000000   0.1443375   0.2959968), wk =   0.0078125
        k(   10) = (  -0.0000000   0.1443376  -0.3946625), wk =   0.0078125
        k(   11) = (  -0.0000000   0.1443376  -0.2959969), wk =   0.0078125
        k(   12) = (  -0.0000000   0.1443376  -0.1973313), wk =   0.0078125
        k(   13) = (  -0.0000000   0.1443376  -0.0986656), wk =   0.0078125
        k(   14) = (  -0.0000000   0.2886751  -0.0000000), wk =   0.0078125
        k(   15) = (  -0.0000000   0.2886751   0.0986656), wk =   0.0078125
        k(   16) = (  -0.0000000   0.2886751   0.1973312), wk =   0.0078125
        k(   17) = (   0.0000000   0.2886751   0.2959968), wk =   0.0078125
        k(   18) = (  -0.0000001   0.2886751  -0.3946625), wk =   0.0078125
        k(   19) = (  -0.0000000   0.2886751  -0.2959969), wk =   0.0078125
        k(   20) = (  -0.0000000   0.2886751  -0.1973313), wk =   0.0078125
        k(   21) = (  -0.0000000   0.2886751  -0.0986657), wk =   0.0078125
        k(   22) = (  -0.0000000   0.4330127  -0.0000001), wk =   0.0078125
        k(   23) = (  -0.0000000   0.4330126   0.0986656), wk =   0.0078125
        k(   24) = (  -0.0000000   0.4330126   0.1973312), wk =   0.0078125
        k(   25) = (  -0.0000000   0.4330126   0.2959968), wk =   0.0078125
        k(   26) = (  -0.0000001   0.4330127  -0.3946625), wk =   0.0078125
        k(   27) = (  -0.0000001   0.4330127  -0.2959969), wk =   0.0078125
        k(   28) = (  -0.0000000   0.4330127  -0.1973313), wk =   0.0078125
        k(   29) = (  -0.0000000   0.4330127  -0.0986657), wk =   0.0078125
        k(   30) = (   0.0000000  -0.5773502   0.0000001), wk =   0.0039062
        k(   31) = (   0.0000000  -0.5773502   0.0986657), wk =   0.0078125
        k(   32) = (   0.0000001  -0.5773502   0.1973313), wk =   0.0078125
        k(   33) = (   0.0000001  -0.5773502   0.2959969), wk =   0.0078125
        k(   34) = (   0.0000000  -0.5773502  -0.3946624), wk =   0.0039062
        k(   35) = (   0.1250000   0.0721688   0.0000000), wk =   0.0078125
        k(   36) = (   0.1250000   0.0721688   0.0986657), wk =   0.0078125
        k(   37) = (   0.1250000   0.0721687   0.1973313), wk =   0.0078125
        k(   38) = (   0.1250000   0.0721687   0.2959969), wk =   0.0078125
        k(   39) = (   0.1250000   0.0721688  -0.3946624), wk =   0.0078125
        k(   40) = (   0.1250000   0.0721688  -0.2959968), wk =   0.0078125
        k(   41) = (   0.1250000   0.0721688  -0.1973312), wk =   0.0078125
        k(   42) = (   0.1250000   0.0721688  -0.0986656), wk =   0.0078125
        k(   43) = (   0.1250000   0.2165063   0.0000000), wk =   0.0078125
        k(   44) = (   0.1250000   0.2165063   0.0986656), wk =   0.0078125
        k(   45) = (   0.1250000   0.2165063   0.1973312), wk =   0.0078125
        k(   46) = (   0.1250000   0.2165063   0.2959969), wk =   0.0078125
        k(   47) = (   0.1249999   0.2165064  -0.3946625), wk =   0.0078125
        k(   48) = (   0.1250000   0.2165063  -0.2959968), wk =   0.0078125
        k(   49) = (   0.1250000   0.2165063  -0.1973312), wk =   0.0078125
        k(   50) = (   0.1250000   0.2165063  -0.0986656), wk =   0.0078125
        k(   51) = (   0.1250000   0.3608439  -0.0000000), wk =   0.0078125
        k(   52) = (   0.1250000   0.3608439   0.0986656), wk =   0.0078125
        k(   53) = (   0.1250000   0.3608439   0.1973312), wk =   0.0078125
        k(   54) = (   0.1250000   0.3608438   0.2959968), wk =   0.0078125
        k(   55) = (   0.1249999   0.3608439  -0.3946625), wk =   0.0078125
        k(   56) = (   0.1249999   0.3608439  -0.2959969), wk =   0.0078125
        k(   57) = (   0.1250000   0.3608439  -0.1973312), wk =   0.0078125
        k(   58) = (   0.1250000   0.3608439  -0.0986656), wk =   0.0078125
        k(   59) = (   0.1250000   0.5051814  -0.0000000), wk =   0.0078125
        k(   60) = (   0.1250000   0.5051814   0.0986656), wk =   0.0078125
        k(   61) = (   0.1250000   0.5051814   0.1973312), wk =   0.0078125
        k(   62) = (   0.1250000   0.5051814   0.2959968), wk =   0.0078125
        k(   63) = (   0.1249999   0.5051815  -0.3946625), wk =   0.0078125
        k(   64) = (   0.1249999   0.5051815  -0.2959969), wk =   0.0078125
        k(   65) = (   0.1249999   0.5051814  -0.1973313), wk =   0.0078125
        k(   66) = (   0.1250000   0.5051814  -0.0986656), wk =   0.0078125
        k(   67) = (   0.1250000  -0.5051814   0.0000001), wk =   0.0078125
        k(   68) = (   0.1250000  -0.5051815   0.0986657), wk =   0.0078125
        k(   69) = (   0.1250001  -0.5051815   0.1973314), wk =   0.0078125
        k(   70) = (   0.1250001  -0.5051815   0.2959970), wk =   0.0078125
        k(   71) = (   0.1250000  -0.5051814  -0.3946623), wk =   0.0078125
        k(   72) = (   0.1250000  -0.5051814  -0.2959967), wk =   0.0078125
        k(   73) = (   0.1250000  -0.5051814  -0.1973311), wk =   0.0078125
        k(   74) = (   0.1250000  -0.5051814  -0.0986655), wk =   0.0078125
        k(   75) = (   0.1250000  -0.3608439   0.0000001), wk =   0.0078125
        k(   76) = (   0.1250000  -0.3608439   0.0986657), wk =   0.0078125
        k(   77) = (   0.1250000  -0.3608439   0.1973313), wk =   0.0078125
        k(   78) = (   0.1250001  -0.3608439   0.2959969), wk =   0.0078125
        k(   79) = (   0.1250000  -0.3608439  -0.3946624), wk =   0.0078125
        k(   80) = (   0.1250000  -0.3608439  -0.2959968), wk =   0.0078125
        k(   81) = (   0.1250000  -0.3608439  -0.1973311), wk =   0.0078125
        k(   82) = (   0.1250000  -0.3608439  -0.0986655), wk =   0.0078125
        k(   83) = (   0.1250000  -0.2165063   0.0000001), wk =   0.0078125
        k(   84) = (   0.1250000  -0.2165063   0.0986657), wk =   0.0078125
        k(   85) = (   0.1250000  -0.2165064   0.1973313), wk =   0.0078125
        k(   86) = (   0.1250000  -0.2165064   0.2959969), wk =   0.0078125
        k(   87) = (   0.1250000  -0.2165063  -0.3946624), wk =   0.0078125
        k(   88) = (   0.1250000  -0.2165063  -0.2959968), wk =   0.0078125
        k(   89) = (   0.1250000  -0.2165063  -0.1973312), wk =   0.0078125
        k(   90) = (   0.1250000  -0.2165063  -0.0986655), wk =   0.0078125
        k(   91) = (   0.1250000  -0.0721688   0.0000001), wk =   0.0078125
        k(   92) = (   0.1250000  -0.0721688   0.0986657), wk =   0.0078125
        k(   93) = (   0.1250000  -0.0721688   0.1973313), wk =   0.0078125
        k(   94) = (   0.1250000  -0.0721688   0.2959969), wk =   0.0078125
        k(   95) = (   0.1250000  -0.0721687  -0.3946624), wk =   0.0078125
        k(   96) = (   0.1250000  -0.0721688  -0.2959968), wk =   0.0078125
        k(   97) = (   0.1250000  -0.0721688  -0.1973312), wk =   0.0078125
        k(   98) = (   0.1250000  -0.0721688  -0.0986656), wk =   0.0078125
        k(   99) = (   0.2500000   0.1443375   0.0000001), wk =   0.0078125
        k(  100) = (   0.2500000   0.1443375   0.0986657), wk =   0.0078125
        k(  101) = (   0.2500000   0.1443375   0.1973313), wk =   0.0078125
        k(  102) = (   0.2500000   0.1443375   0.2959969), wk =   0.0078125
        k(  103) = (   0.2500000   0.1443376  -0.3946624), wk =   0.0078125
        k(  104) = (   0.2500000   0.1443376  -0.2959968), wk =   0.0078125
        k(  105) = (   0.2500000   0.1443376  -0.1973312), wk =   0.0078125
        k(  106) = (   0.2500000   0.1443375  -0.0986655), wk =   0.0078125
        k(  107) = (   0.2500000   0.2886751   0.0000001), wk =   0.0078125
        k(  108) = (   0.2500000   0.2886751   0.0986657), wk =   0.0078125
        k(  109) = (   0.2500000   0.2886751   0.1973313), wk =   0.0078125
        k(  110) = (   0.2500000   0.2886751   0.2959969), wk =   0.0078125
        k(  111) = (   0.2499999   0.2886751  -0.3946624), wk =   0.0078125
        k(  112) = (   0.2500000   0.2886751  -0.2959968), wk =   0.0078125
        k(  113) = (   0.2500000   0.2886751  -0.1973312), wk =   0.0078125
        k(  114) = (   0.2500000   0.2886751  -0.0986656), wk =   0.0078125
        k(  115) = (   0.2500000   0.4330126   0.0000000), wk =   0.0078125
        k(  116) = (   0.2500000   0.4330126   0.0986656), wk =   0.0078125
        k(  117) = (   0.2500000   0.4330126   0.1973313), wk =   0.0078125
        k(  118) = (   0.2500000   0.4330126   0.2959969), wk =   0.0078125
        k(  119) = (   0.2499999   0.4330127  -0.3946624), wk =   0.0078125
        k(  120) = (   0.2499999   0.4330127  -0.2959968), wk =   0.0078125
        k(  121) = (   0.2500000   0.4330127  -0.1973312), wk =   0.0078125
        k(  122) = (   0.2500000   0.4330127  -0.0986656), wk =   0.0078125
        k(  123) = (   0.2500000   0.5773502   0.0000000), wk =   0.0078125
        k(  124) = (   0.2500000   0.5773502   0.0986656), wk =   0.0078125
        k(  125) = (   0.2500000   0.5773502   0.1973312), wk =   0.0078125
        k(  126) = (   0.2500000   0.5773502   0.2959969), wk =   0.0078125
        k(  127) = (   0.2499999   0.5773502  -0.3946625), wk =   0.0078125
        k(  128) = (   0.2499999   0.5773502  -0.2959968), wk =   0.0078125
        k(  129) = (   0.2499999   0.5773502  -0.1973312), wk =   0.0078125
        k(  130) = (   0.2500000   0.5773502  -0.0986656), wk =   0.0078125
        k(  131) = (   0.2500000  -0.4330127   0.0000002), wk =   0.0078125
        k(  132) = (   0.2500000  -0.4330127   0.0986658), wk =   0.0078125
        k(  133) = (   0.2500000  -0.4330127   0.1973314), wk =   0.0078125
        k(  134) = (   0.2500001  -0.4330127   0.2959970), wk =   0.0078125
        k(  135) = (   0.2500000  -0.4330126  -0.3946623), wk =   0.0078125
        k(  136) = (   0.2500000  -0.4330126  -0.2959967), wk =   0.0078125
        k(  137) = (   0.2500000  -0.4330127  -0.1973311), wk =   0.0078125
        k(  138) = (   0.2500000  -0.4330127  -0.0986655), wk =   0.0078125
        k(  139) = (   0.2500000  -0.2886751   0.0000001), wk =   0.0078125
        k(  140) = (   0.2500000  -0.2886751   0.0986657), wk =   0.0078125
        k(  141) = (   0.2500000  -0.2886751   0.1973314), wk =   0.0078125
        k(  142) = (   0.2500000  -0.2886752   0.2959970), wk =   0.0078125
        k(  143) = (   0.2500000  -0.2886751  -0.3946623), wk =   0.0078125
        k(  144) = (   0.2500000  -0.2886751  -0.2959967), wk =   0.0078125
        k(  145) = (   0.2500000  -0.2886751  -0.1973311), wk =   0.0078125
        k(  146) = (   0.2500000  -0.2886751  -0.0986655), wk =   0.0078125
        k(  147) = (   0.2500000  -0.1443376   0.0000001), wk =   0.0078125
        k(  148) = (   0.2500000  -0.1443376   0.0986657), wk =   0.0078125
        k(  149) = (   0.2500000  -0.1443376   0.1973313), wk =   0.0078125
        k(  150) = (   0.2500000  -0.1443376   0.2959970), wk =   0.0078125
        k(  151) = (   0.2500000  -0.1443375  -0.3946624), wk =   0.0078125
        k(  152) = (   0.2500000  -0.1443375  -0.2959967), wk =   0.0078125
        k(  153) = (   0.2500000  -0.1443376  -0.1973311), wk =   0.0078125
        k(  154) = (   0.2500000  -0.1443376  -0.0986655), wk =   0.0078125
        k(  155) = (   0.2500000  -0.0000000   0.0000001), wk =   0.0078125
        k(  156) = (   0.2500000  -0.0000000   0.0986657), wk =   0.0078125
        k(  157) = (   0.2500000  -0.0000000   0.1973313), wk =   0.0078125
        k(  158) = (   0.2500000  -0.0000000   0.2959969), wk =   0.0078125
        k(  159) = (   0.2500000   0.0000000  -0.3946624), wk =   0.0078125
        k(  160) = (   0.2500000   0.0000000  -0.2959968), wk =   0.0078125
        k(  161) = (   0.2500000   0.0000000  -0.1973311), wk =   0.0078125
        k(  162) = (   0.2500000  -0.0000000  -0.0986655), wk =   0.0078125
        k(  163) = (   0.3750000   0.2165063   0.0000001), wk =   0.0078125
        k(  164) = (   0.3750000   0.2165063   0.0986657), wk =   0.0078125
        k(  165) = (   0.3750000   0.2165063   0.1973313), wk =   0.0078125
        k(  166) = (   0.3750000   0.2165063   0.2959970), wk =   0.0078125
        k(  167) = (   0.3749999   0.2165063  -0.3946624), wk =   0.0078125
        k(  168) = (   0.3750000   0.2165063  -0.2959967), wk =   0.0078125
        k(  169) = (   0.3750000   0.2165063  -0.1973311), wk =   0.0078125
        k(  170) = (   0.3750000   0.2165063  -0.0986655), wk =   0.0078125
        k(  171) = (   0.3750000   0.3608439   0.0000001), wk =   0.0078125
        k(  172) = (   0.3750000   0.3608438   0.0986657), wk =   0.0078125
        k(  173) = (   0.3750000   0.3608438   0.1973313), wk =   0.0078125
        k(  174) = (   0.3750000   0.3608438   0.2959969), wk =   0.0078125
        k(  175) = (   0.3749999   0.3608439  -0.3946624), wk =   0.0078125
        k(  176) = (   0.3749999   0.3608439  -0.2959968), wk =   0.0078125
        k(  177) = (   0.3750000   0.3608439  -0.1973311), wk =   0.0078125
        k(  178) = (   0.3750000   0.3608439  -0.0986655), wk =   0.0078125
        k(  179) = (   0.3750000   0.5051814   0.0000001), wk =   0.0078125
        k(  180) = (   0.3750000   0.5051814   0.0986657), wk =   0.0078125
        k(  181) = (   0.3750000   0.5051814   0.1973313), wk =   0.0078125
        k(  182) = (   0.3750000   0.5051814   0.2959969), wk =   0.0078125
        k(  183) = (   0.3749999   0.5051814  -0.3946624), wk =   0.0078125
        k(  184) = (   0.3749999   0.5051814  -0.2959968), wk =   0.0078125
        k(  185) = (   0.3749999   0.5051814  -0.1973312), wk =   0.0078125
        k(  186) = (   0.3750000   0.5051814  -0.0986656), wk =   0.0078125
        k(  187) = (   0.3750000   0.6495190   0.0000000), wk =   0.0078125
        k(  188) = (   0.3750000   0.6495190   0.0986657), wk =   0.0078125
        k(  189) = (   0.3750000   0.6495189   0.1973313), wk =   0.0078125
        k(  190) = (   0.3750000   0.6495189   0.2959969), wk =   0.0078125
        k(  191) = (   0.3749999   0.6495190  -0.3946624), wk =   0.0078125
        k(  192) = (   0.3749999   0.6495190  -0.2959968), wk =   0.0078125
        k(  193) = (   0.3749999   0.6495190  -0.1973312), wk =   0.0078125
        k(  194) = (   0.3749999   0.6495190  -0.0986656), wk =   0.0078125
        k(  195) = (   0.3750000  -0.3608439   0.0000002), wk =   0.0078125
        k(  196) = (   0.3750000  -0.3608439   0.0986658), wk =   0.0078125
        k(  197) = (   0.3750000  -0.3608439   0.1973314), wk =   0.0078125
        k(  198) = (   0.3750001  -0.3608439   0.2959970), wk =   0.0078125
        k(  199) = (   0.3750000  -0.3608439  -0.3946623), wk =   0.0078125
        k(  200) = (   0.3750000  -0.3608439  -0.2959967), wk =   0.0078125
        k(  201) = (   0.3750000  -0.3608439  -0.1973310), wk =   0.0078125
        k(  202) = (   0.3750000  -0.3608439  -0.0986654), wk =   0.0078125
        k(  203) = (   0.3750000  -0.2165064   0.0000002), wk =   0.0078125
        k(  204) = (   0.3750000  -0.2165064   0.0986658), wk =   0.0078125
        k(  205) = (   0.3750000  -0.2165064   0.1973314), wk =   0.0078125
        k(  206) = (   0.3750000  -0.2165064   0.2959970), wk =   0.0078125
        k(  207) = (   0.3750000  -0.2165063  -0.3946623), wk =   0.0078125
        k(  208) = (   0.3750000  -0.2165063  -0.2959967), wk =   0.0078125
        k(  209) = (   0.3750000  -0.2165063  -0.1973311), wk =   0.0078125
        k(  210) = (   0.3750000  -0.2165063  -0.0986654), wk =   0.0078125
        k(  211) = (   0.3750000  -0.0721688   0.0000001), wk =   0.0078125
        k(  212) = (   0.3750000  -0.0721688   0.0986658), wk =   0.0078125
        k(  213) = (   0.3750000  -0.0721688   0.1973314), wk =   0.0078125
        k(  214) = (   0.3750000  -0.0721688   0.2959970), wk =   0.0078125
        k(  215) = (   0.3750000  -0.0721688  -0.3946623), wk =   0.0078125
        k(  216) = (   0.3750000  -0.0721688  -0.2959967), wk =   0.0078125
        k(  217) = (   0.3750000  -0.0721688  -0.1973311), wk =   0.0078125
        k(  218) = (   0.3750000  -0.0721688  -0.0986655), wk =   0.0078125
        k(  219) = (   0.3750000   0.0721688   0.0000001), wk =   0.0078125
        k(  220) = (   0.3750000   0.0721687   0.0986657), wk =   0.0078125
        k(  221) = (   0.3750000   0.0721687   0.1973314), wk =   0.0078125
        k(  222) = (   0.3750000   0.0721687   0.2959970), wk =   0.0078125
        k(  223) = (   0.3750000   0.0721688  -0.3946623), wk =   0.0078125
        k(  224) = (   0.3750000   0.0721688  -0.2959967), wk =   0.0078125
        k(  225) = (   0.3750000   0.0721688  -0.1973311), wk =   0.0078125
        k(  226) = (   0.3750000   0.0721688  -0.0986655), wk =   0.0078125
        k(  227) = (  -0.5000000  -0.2886751  -0.0000001), wk =   0.0039062
        k(  228) = (  -0.5000000  -0.2886751   0.0986655), wk =   0.0078125
        k(  229) = (  -0.5000000  -0.2886751   0.1973311), wk =   0.0078125
        k(  230) = (  -0.5000000  -0.2886751   0.2959967), wk =   0.0078125
        k(  231) = (  -0.5000000  -0.2886750  -0.3946626), wk =   0.0039062
        k(  232) = (  -0.5000000  -0.1443375  -0.0000002), wk =   0.0078125
        k(  233) = (  -0.5000000  -0.1443375   0.0986655), wk =   0.0078125
        k(  234) = (  -0.5000000  -0.1443375   0.1973311), wk =   0.0078125
        k(  235) = (  -0.5000000  -0.1443375   0.2959967), wk =   0.0078125
        k(  236) = (  -0.5000000  -0.1443375  -0.3946626), wk =   0.0078125
        k(  237) = (  -0.5000000  -0.1443375  -0.2959970), wk =   0.0078125
        k(  238) = (  -0.5000000  -0.1443375  -0.1973314), wk =   0.0078125
        k(  239) = (  -0.5000000  -0.1443375  -0.0986658), wk =   0.0078125
        k(  240) = (  -0.5000000   0.0000000  -0.0000002), wk =   0.0078125
        k(  241) = (  -0.5000000   0.0000000   0.0986654), wk =   0.0078125
        k(  242) = (  -0.5000000   0.0000000   0.1973311), wk =   0.0078125
        k(  243) = (  -0.5000000   0.0000000   0.2959967), wk =   0.0078125
        k(  244) = (  -0.5000000   0.0000001  -0.3946626), wk =   0.0078125
        k(  245) = (  -0.5000000   0.0000001  -0.2959970), wk =   0.0078125
        k(  246) = (  -0.5000000   0.0000001  -0.1973314), wk =   0.0078125
        k(  247) = (  -0.5000000   0.0000000  -0.0986658), wk =   0.0078125
        k(  248) = (  -0.5000000   0.1443376  -0.0000002), wk =   0.0078125
        k(  249) = (  -0.5000000   0.1443376   0.0986654), wk =   0.0078125
        k(  250) = (  -0.5000000   0.1443376   0.1973310), wk =   0.0078125
        k(  251) = (  -0.5000000   0.1443376   0.2959966), wk =   0.0078125
        k(  252) = (  -0.5000000   0.1443376  -0.3946627), wk =   0.0078125
        k(  253) = (  -0.5000000   0.1443376  -0.2959971), wk =   0.0078125
        k(  254) = (  -0.5000000   0.1443376  -0.1973314), wk =   0.0078125
        k(  255) = (  -0.5000000   0.1443376  -0.0986658), wk =   0.0078125
        k(  256) = (  -0.4999999  -0.8660253  -0.0000001), wk =   0.0039062
        k(  257) = (  -0.4999999  -0.8660253   0.0986656), wk =   0.0078125
        k(  258) = (  -0.4999999  -0.8660253   0.1973312), wk =   0.0078125
        k(  259) = (  -0.4999999  -0.8660253   0.2959968), wk =   0.0078125
        k(  260) = (  -0.5000000  -0.8660252  -0.3946625), wk =   0.0039062

                       cryst. coord.
        k(    1) = (   0.0000000   0.0000000   0.0000000), wk =   0.0039062
        k(    2) = (   0.0000000  -0.0000000   0.1250000), wk =   0.0078125
        k(    3) = (   0.0000000  -0.0000000   0.2500000), wk =   0.0078125
        k(    4) = (   0.0000000  -0.0000000   0.3750000), wk =   0.0078125
        k(    5) = (  -0.0000000   0.0000000  -0.5000000), wk =   0.0039062
        k(    6) = (  -0.0000000   0.1250000   0.0000000), wk =   0.0078125
        k(    7) = (   0.0000000   0.1250000   0.1250000), wk =   0.0078125
        k(    8) = (   0.0000000   0.1250000   0.2500000), wk =   0.0078125
        k(    9) = (   0.0000000   0.1250000   0.3750000), wk =   0.0078125
        k(   10) = (  -0.0000000   0.1250000  -0.5000000), wk =   0.0078125
        k(   11) = (  -0.0000000   0.1250000  -0.3750000), wk =   0.0078125
        k(   12) = (  -0.0000000   0.1250000  -0.2500000), wk =   0.0078125
        k(   13) = (   0.0000000   0.1250000  -0.1250000), wk =   0.0078125
        k(   14) = (  -0.0000000   0.2500000   0.0000000), wk =   0.0078125
        k(   15) = (   0.0000000   0.2500000   0.1250000), wk =   0.0078125
        k(   16) = (   0.0000000   0.2500000   0.2500000), wk =   0.0078125
        k(   17) = (   0.0000000   0.2500000   0.3750000), wk =   0.0078125
        k(   18) = (  -0.0000000   0.2500000  -0.5000000), wk =   0.0078125
        k(   19) = (  -0.0000000   0.2500000  -0.3750000), wk =   0.0078125
        k(   20) = (   0.0000000   0.2500000  -0.2500000), wk =   0.0078125
        k(   21) = (  -0.0000000   0.2500000  -0.1250000), wk =   0.0078125
        k(   22) = (   0.0000000   0.3750000   0.0000000), wk =   0.0078125
        k(   23) = (   0.0000000   0.3750000   0.1250000), wk =   0.0078125
        k(   24) = (   0.0000000   0.3750000   0.2500000), wk =   0.0078125
        k(   25) = (   0.0000000   0.3750000   0.3750000), wk =   0.0078125
        k(   26) = (  -0.0000000   0.3750000  -0.5000000), wk =   0.0078125
        k(   27) = (   0.0000000   0.3750000  -0.3750000), wk =   0.0078125
        k(   28) = (   0.0000000   0.3750000  -0.2500000), wk =   0.0078125
        k(   29) = (  -0.0000000   0.3750000  -0.1250000), wk =   0.0078125
        k(   30) = (   0.0000000  -0.5000000  -0.0000000), wk =   0.0039062
        k(   31) = (   0.0000000  -0.5000000   0.1250000), wk =   0.0078125
        k(   32) = (   0.0000000  -0.5000000   0.2500000), wk =   0.0078125
        k(   33) = (   0.0000000  -0.5000000   0.3750000), wk =   0.0078125
        k(   34) = (  -0.0000000  -0.5000000  -0.5000000), wk =   0.0039062
        k(   35) = (   0.1250000   0.0000000  -0.0000000), wk =   0.0078125
        k(   36) = (   0.1250000   0.0000000   0.1250000), wk =   0.0078125
        k(   37) = (   0.1250000   0.0000000   0.2500000), wk =   0.0078125
        k(   38) = (   0.1250000   0.0000000   0.3750000), wk =   0.0078125
        k(   39) = (   0.1250000   0.0000000  -0.5000000), wk =   0.0078125
        k(   40) = (   0.1250000  -0.0000000  -0.3750000), wk =   0.0078125
        k(   41) = (   0.1250000   0.0000000  -0.2500000), wk =   0.0078125
        k(   42) = (   0.1250000  -0.0000000  -0.1250000), wk =   0.0078125
        k(   43) = (   0.1250000   0.1250000   0.0000000), wk =   0.0078125
        k(   44) = (   0.1250000   0.1250000   0.1250000), wk =   0.0078125
        k(   45) = (   0.1250000   0.1250000   0.2500000), wk =   0.0078125
        k(   46) = (   0.1250000   0.1250000   0.3750000), wk =   0.0078125
        k(   47) = (   0.1250000   0.1250000  -0.5000000), wk =   0.0078125
        k(   48) = (   0.1250000   0.1250000  -0.3750000), wk =   0.0078125
        k(   49) = (   0.1250000   0.1250000  -0.2500000), wk =   0.0078125
        k(   50) = (   0.1250000   0.1250000  -0.1250000), wk =   0.0078125
        k(   51) = (   0.1250000   0.2500000  -0.0000000), wk =   0.0078125
        k(   52) = (   0.1250000   0.2500000   0.1250000), wk =   0.0078125
        k(   53) = (   0.1250000   0.2500000   0.2500000), wk =   0.0078125
        k(   54) = (   0.1250000   0.2500000   0.3750000), wk =   0.0078125
        k(   55) = (   0.1250000   0.2500000  -0.5000000), wk =   0.0078125
        k(   56) = (   0.1250000   0.2500000  -0.3750000), wk =   0.0078125
        k(   57) = (   0.1250000   0.2500000  -0.2500000), wk =   0.0078125
        k(   58) = (   0.1250000   0.2500000  -0.1250000), wk =   0.0078125
        k(   59) = (   0.1250000   0.3750000   0.0000000), wk =   0.0078125
        k(   60) = (   0.1250000   0.3750000   0.1250000), wk =   0.0078125
        k(   61) = (   0.1250000   0.3750000   0.2500000), wk =   0.0078125
        k(   62) = (   0.1250000   0.3750000   0.3750000), wk =   0.0078125
        k(   63) = (   0.1250000   0.3750000  -0.5000000), wk =   0.0078125
        k(   64) = (   0.1250000   0.3750000  -0.3750000), wk =   0.0078125
        k(   65) = (   0.1250000   0.3750000  -0.2500000), wk =   0.0078125
        k(   66) = (   0.1250000   0.3750000  -0.1250000), wk =   0.0078125
        k(   67) = (   0.1250000  -0.5000000  -0.0000000), wk =   0.0078125
        k(   68) = (   0.1250000  -0.5000000   0.1250000), wk =   0.0078125
        k(   69) = (   0.1250000  -0.5000000   0.2500000), wk =   0.0078125
        k(   70) = (   0.1250000  -0.5000000   0.3750000), wk =   0.0078125
        k(   71) = (   0.1250000  -0.5000000  -0.5000000), wk =   0.0078125
        k(   72) = (   0.1250000  -0.5000000  -0.3750000), wk =   0.0078125
        k(   73) = (   0.1250000  -0.5000000  -0.2500000), wk =   0.0078125
        k(   74) = (   0.1250000  -0.5000000  -0.1250000), wk =   0.0078125
        k(   75) = (   0.1250000  -0.3750000   0.0000000), wk =   0.0078125
        k(   76) = (   0.1250000  -0.3750000   0.1250000), wk =   0.0078125
        k(   77) = (   0.1250000  -0.3750000   0.2500000), wk =   0.0078125
        k(   78) = (   0.1250000  -0.3750000   0.3750000), wk =   0.0078125
        k(   79) = (   0.1250000  -0.3750000  -0.5000000), wk =   0.0078125
        k(   80) = (   0.1250000  -0.3750000  -0.3750000), wk =   0.0078125
        k(   81) = (   0.1250000  -0.3750000  -0.2500000), wk =   0.0078125
        k(   82) = (   0.1250000  -0.3750000  -0.1250000), wk =   0.0078125
        k(   83) = (   0.1250000  -0.2500000  -0.0000000), wk =   0.0078125
        k(   84) = (   0.1250000  -0.2500000   0.1250000), wk =   0.0078125
        k(   85) = (   0.1250000  -0.2500000   0.2500000), wk =   0.0078125
        k(   86) = (   0.1250000  -0.2500000   0.3750000), wk =   0.0078125
        k(   87) = (   0.1250000  -0.2500000  -0.5000000), wk =   0.0078125
        k(   88) = (   0.1250000  -0.2500000  -0.3750000), wk =   0.0078125
        k(   89) = (   0.1250000  -0.2500000  -0.2500000), wk =   0.0078125
        k(   90) = (   0.1250000  -0.2500000  -0.1250000), wk =   0.0078125
        k(   91) = (   0.1250000  -0.1250000  -0.0000000), wk =   0.0078125
        k(   92) = (   0.1250000  -0.1250000   0.1250000), wk =   0.0078125
        k(   93) = (   0.1250000  -0.1250000   0.2500000), wk =   0.0078125
        k(   94) = (   0.1250000  -0.1250000   0.3750000), wk =   0.0078125
        k(   95) = (   0.1250000  -0.1250000  -0.5000000), wk =   0.0078125
        k(   96) = (   0.1250000  -0.1250000  -0.3750000), wk =   0.0078125
        k(   97) = (   0.1250000  -0.1250000  -0.2500000), wk =   0.0078125
        k(   98) = (   0.1250000  -0.1250000  -0.1250000), wk =   0.0078125
        k(   99) = (   0.2500000   0.0000000  -0.0000000), wk =   0.0078125
        k(  100) = (   0.2500000   0.0000000   0.1250000), wk =   0.0078125
        k(  101) = (   0.2500000   0.0000000   0.2500000), wk =   0.0078125
        k(  102) = (   0.2500000   0.0000000   0.3750000), wk =   0.0078125
        k(  103) = (   0.2500000   0.0000000  -0.5000000), wk =   0.0078125
        k(  104) = (   0.2500000  -0.0000000  -0.3750000), wk =   0.0078125
        k(  105) = (   0.2500000  -0.0000000  -0.2500000), wk =   0.0078125
        k(  106) = (   0.2500000   0.0000000  -0.1250000), wk =   0.0078125
        k(  107) = (   0.2500000   0.1250000   0.0000000), wk =   0.0078125
        k(  108) = (   0.2500000   0.1250000   0.1250000), wk =   0.0078125
        k(  109) = (   0.2500000   0.1250000   0.2500000), wk =   0.0078125
        k(  110) = (   0.2500000   0.1250000   0.3750000), wk =   0.0078125
        k(  111) = (   0.2500000   0.1250000  -0.5000000), wk =   0.0078125
        k(  112) = (   0.2500000   0.1250000  -0.3750000), wk =   0.0078125
        k(  113) = (   0.2500000   0.1250000  -0.2500000), wk =   0.0078125
        k(  114) = (   0.2500000   0.1250000  -0.1250000), wk =   0.0078125
        k(  115) = (   0.2500000   0.2500000   0.0000000), wk =   0.0078125
        k(  116) = (   0.2500000   0.2500000   0.1250000), wk =   0.0078125
        k(  117) = (   0.2500000   0.2500000   0.2500000), wk =   0.0078125
        k(  118) = (   0.2500000   0.2500000   0.3750000), wk =   0.0078125
        k(  119) = (   0.2500000   0.2500000  -0.5000000), wk =   0.0078125
        k(  120) = (   0.2500000   0.2500000  -0.3750000), wk =   0.0078125
        k(  121) = (   0.2500000   0.2500000  -0.2500000), wk =   0.0078125
        k(  122) = (   0.2500000   0.2500000  -0.1250000), wk =   0.0078125
        k(  123) = (   0.2500000   0.3750000   0.0000000), wk =   0.0078125
        k(  124) = (   0.2500000   0.3750000   0.1250000), wk =   0.0078125
        k(  125) = (   0.2500000   0.3750000   0.2500000), wk =   0.0078125
        k(  126) = (   0.2500000   0.3750000   0.3750000), wk =   0.0078125
        k(  127) = (   0.2500000   0.3750000  -0.5000000), wk =   0.0078125
        k(  128) = (   0.2500000   0.3750000  -0.3750000), wk =   0.0078125
        k(  129) = (   0.2500000   0.3750000  -0.2500000), wk =   0.0078125
        k(  130) = (   0.2500000   0.3750000  -0.1250000), wk =   0.0078125
        k(  131) = (   0.2500000  -0.5000000  -0.0000000), wk =   0.0078125
        k(  132) = (   0.2500000  -0.5000000   0.1250000), wk =   0.0078125
        k(  133) = (   0.2500000  -0.5000000   0.2500000), wk =   0.0078125
        k(  134) = (   0.2500000  -0.5000000   0.3750000), wk =   0.0078125
        k(  135) = (   0.2500000  -0.5000000  -0.5000000), wk =   0.0078125
        k(  136) = (   0.2500000  -0.5000000  -0.3750000), wk =   0.0078125
        k(  137) = (   0.2500000  -0.5000000  -0.2500000), wk =   0.0078125
        k(  138) = (   0.2500000  -0.5000000  -0.1250000), wk =   0.0078125
        k(  139) = (   0.2500000  -0.3750000  -0.0000000), wk =   0.0078125
        k(  140) = (   0.2500000  -0.3750000   0.1250000), wk =   0.0078125
        k(  141) = (   0.2500000  -0.3750000   0.2500000), wk =   0.0078125
        k(  142) = (   0.2500000  -0.3750000   0.3750000), wk =   0.0078125
        k(  143) = (   0.2500000  -0.3750000  -0.5000000), wk =   0.0078125
        k(  144) = (   0.2500000  -0.3750000  -0.3750000), wk =   0.0078125
        k(  145) = (   0.2500000  -0.3750000  -0.2500000), wk =   0.0078125
        k(  146) = (   0.2500000  -0.3750000  -0.1250000), wk =   0.0078125
        k(  147) = (   0.2500000  -0.2500000  -0.0000000), wk =   0.0078125
        k(  148) = (   0.2500000  -0.2500000   0.1250000), wk =   0.0078125
        k(  149) = (   0.2500000  -0.2500000   0.2500000), wk =   0.0078125
        k(  150) = (   0.2500000  -0.2500000   0.3750000), wk =   0.0078125
        k(  151) = (   0.2500000  -0.2500000  -0.5000000), wk =   0.0078125
        k(  152) = (   0.2500000  -0.2500000  -0.3750000), wk =   0.0078125
        k(  153) = (   0.2500000  -0.2500000  -0.2500000), wk =   0.0078125
        k(  154) = (   0.2500000  -0.2500000  -0.1250000), wk =   0.0078125
        k(  155) = (   0.2500000  -0.1250000  -0.0000000), wk =   0.0078125
        k(  156) = (   0.2500000  -0.1250000   0.1250000), wk =   0.0078125
        k(  157) = (   0.2500000  -0.1250000   0.2500000), wk =   0.0078125
        k(  158) = (   0.2500000  -0.1250000   0.3750000), wk =   0.0078125
        k(  159) = (   0.2500000  -0.1250000  -0.5000000), wk =   0.0078125
        k(  160) = (   0.2500000  -0.1250000  -0.3750000), wk =   0.0078125
        k(  161) = (   0.2500000  -0.1250000  -0.2500000), wk =   0.0078125
        k(  162) = (   0.2500000  -0.1250000  -0.1250000), wk =   0.0078125
        k(  163) = (   0.3750000   0.0000000  -0.0000000), wk =   0.0078125
        k(  164) = (   0.3750000  -0.0000000   0.1250000), wk =   0.0078125
        k(  165) = (   0.3750000   0.0000000   0.2500000), wk =   0.0078125
        k(  166) = (   0.3750000   0.0000000   0.3750000), wk =   0.0078125
        k(  167) = (   0.3750000   0.0000000  -0.5000000), wk =   0.0078125
        k(  168) = (   0.3750000   0.0000000  -0.3750000), wk =   0.0078125
        k(  169) = (   0.3750000  -0.0000000  -0.2500000), wk =   0.0078125
        k(  170) = (   0.3750000   0.0000000  -0.1250000), wk =   0.0078125
        k(  171) = (   0.3750000   0.1250000  -0.0000000), wk =   0.0078125
        k(  172) = (   0.3750000   0.1250000   0.1250000), wk =   0.0078125
        k(  173) = (   0.3750000   0.1250000   0.2500000), wk =   0.0078125
        k(  174) = (   0.3750000   0.1250000   0.3750000), wk =   0.0078125
        k(  175) = (   0.3750000   0.1250000  -0.5000000), wk =   0.0078125
        k(  176) = (   0.3750000   0.1250000  -0.3750000), wk =   0.0078125
        k(  177) = (   0.3750000   0.1250000  -0.2500000), wk =   0.0078125
        k(  178) = (   0.3750000   0.1250000  -0.1250000), wk =   0.0078125
        k(  179) = (   0.3750000   0.2500000   0.0000000), wk =   0.0078125
        k(  180) = (   0.3750000   0.2500000   0.1250000), wk =   0.0078125
        k(  181) = (   0.3750000   0.2500000   0.2500000), wk =   0.0078125
        k(  182) = (   0.3750000   0.2500000   0.3750000), wk =   0.0078125
        k(  183) = (   0.3750000   0.2500000  -0.5000000), wk =   0.0078125
        k(  184) = (   0.3750000   0.2500000  -0.3750000), wk =   0.0078125
        k(  185) = (   0.3750000   0.2500000  -0.2500000), wk =   0.0078125
        k(  186) = (   0.3750000   0.2500000  -0.1250000), wk =   0.0078125
        k(  187) = (   0.3750000   0.3750000   0.0000000), wk =   0.0078125
        k(  188) = (   0.3750000   0.3750000   0.1250000), wk =   0.0078125
        k(  189) = (   0.3750000   0.3750000   0.2500000), wk =   0.0078125
        k(  190) = (   0.3750000   0.3750000   0.3750000), wk =   0.0078125
        k(  191) = (   0.3750000   0.3750000  -0.5000000), wk =   0.0078125
        k(  192) = (   0.3750000   0.3750000  -0.3750000), wk =   0.0078125
        k(  193) = (   0.3750000   0.3750000  -0.2500000), wk =   0.0078125
        k(  194) = (   0.3750000   0.3750000  -0.1250000), wk =   0.0078125
        k(  195) = (   0.3750000  -0.5000000  -0.0000000), wk =   0.0078125
        k(  196) = (   0.3750000  -0.5000000   0.1250000), wk =   0.0078125
        k(  197) = (   0.3750000  -0.5000000   0.2500000), wk =   0.0078125
        k(  198) = (   0.3750000  -0.5000000   0.3750000), wk =   0.0078125
        k(  199) = (   0.3750000  -0.5000000  -0.5000000), wk =   0.0078125
        k(  200) = (   0.3750000  -0.5000000  -0.3750000), wk =   0.0078125
        k(  201) = (   0.3750000  -0.5000000  -0.2500000), wk =   0.0078125
        k(  202) = (   0.3750000  -0.5000000  -0.1250000), wk =   0.0078125
        k(  203) = (   0.3750000  -0.3750000  -0.0000000), wk =   0.0078125
        k(  204) = (   0.3750000  -0.3750000   0.1250000), wk =   0.0078125
        k(  205) = (   0.3750000  -0.3750000   0.2500000), wk =   0.0078125
        k(  206) = (   0.3750000  -0.3750000   0.3750000), wk =   0.0078125
        k(  207) = (   0.3750000  -0.3750000  -0.5000000), wk =   0.0078125
        k(  208) = (   0.3750000  -0.3750000  -0.3750000), wk =   0.0078125
        k(  209) = (   0.3750000  -0.3750000  -0.2500000), wk =   0.0078125
        k(  210) = (   0.3750000  -0.3750000  -0.1250000), wk =   0.0078125
        k(  211) = (   0.3750000  -0.2500000  -0.0000000), wk =   0.0078125
        k(  212) = (   0.3750000  -0.2500000   0.1250000), wk =   0.0078125
        k(  213) = (   0.3750000  -0.2500000   0.2500000), wk =   0.0078125
        k(  214) = (   0.3750000  -0.2500000   0.3750000), wk =   0.0078125
        k(  215) = (   0.3750000  -0.2500000  -0.5000000), wk =   0.0078125
        k(  216) = (   0.3750000  -0.2500000  -0.3750000), wk =   0.0078125
        k(  217) = (   0.3750000  -0.2500000  -0.2500000), wk =   0.0078125
        k(  218) = (   0.3750000  -0.2500000  -0.1250000), wk =   0.0078125
        k(  219) = (   0.3750000  -0.1250000   0.0000000), wk =   0.0078125
        k(  220) = (   0.3750000  -0.1250000   0.1250000), wk =   0.0078125
        k(  221) = (   0.3750000  -0.1250000   0.2500000), wk =   0.0078125
        k(  222) = (   0.3750000  -0.1250000   0.3750000), wk =   0.0078125
        k(  223) = (   0.3750000  -0.1250000  -0.5000000), wk =   0.0078125
        k(  224) = (   0.3750000  -0.1250000  -0.3750000), wk =   0.0078125
        k(  225) = (   0.3750000  -0.1250000  -0.2500000), wk =   0.0078125
        k(  226) = (   0.3750000  -0.1250000  -0.1250000), wk =   0.0078125
        k(  227) = (  -0.5000000  -0.0000000   0.0000000), wk =   0.0039062
        k(  228) = (  -0.5000000  -0.0000000   0.1250000), wk =   0.0078125
        k(  229) = (  -0.5000000  -0.0000000   0.2500000), wk =   0.0078125
        k(  230) = (  -0.5000000  -0.0000000   0.3750000), wk =   0.0078125
        k(  231) = (  -0.5000000  -0.0000000  -0.5000000), wk =   0.0039062
        k(  232) = (  -0.5000000   0.1250000   0.0000000), wk =   0.0078125
        k(  233) = (  -0.5000000   0.1250000   0.1250000), wk =   0.0078125
        k(  234) = (  -0.5000000   0.1250000   0.2500000), wk =   0.0078125
        k(  235) = (  -0.5000000   0.1250000   0.3750000), wk =   0.0078125
        k(  236) = (  -0.5000000   0.1250000  -0.5000000), wk =   0.0078125
        k(  237) = (  -0.5000000   0.1250000  -0.3750000), wk =   0.0078125
        k(  238) = (  -0.5000000   0.1250000  -0.2500000), wk =   0.0078125
        k(  239) = (  -0.5000000   0.1250000  -0.1250000), wk =   0.0078125
        k(  240) = (  -0.5000000   0.2500000   0.0000000), wk =   0.0078125
        k(  241) = (  -0.5000000   0.2500000   0.1250000), wk =   0.0078125
        k(  242) = (  -0.5000000   0.2500000   0.2500000), wk =   0.0078125
        k(  243) = (  -0.5000000   0.2500000   0.3750000), wk =   0.0078125
        k(  244) = (  -0.5000000   0.2500000  -0.5000000), wk =   0.0078125
        k(  245) = (  -0.5000000   0.2500000  -0.3750000), wk =   0.0078125
        k(  246) = (  -0.5000000   0.2500000  -0.2500000), wk =   0.0078125
        k(  247) = (  -0.5000000   0.2500000  -0.1250000), wk =   0.0078125
        k(  248) = (  -0.5000000   0.3750000   0.0000000), wk =   0.0078125
        k(  249) = (  -0.5000000   0.3750000   0.1250000), wk =   0.0078125
        k(  250) = (  -0.5000000   0.3750000   0.2500000), wk =   0.0078125
        k(  251) = (  -0.5000000   0.3750000   0.3750000), wk =   0.0078125
        k(  252) = (  -0.5000000   0.3750000  -0.5000000), wk =   0.0078125
        k(  253) = (  -0.5000000   0.3750000  -0.3750000), wk =   0.0078125
        k(  254) = (  -0.5000000   0.3750000  -0.2500000), wk =   0.0078125
        k(  255) = (  -0.5000000   0.3750000  -0.1250000), wk =   0.0078125
        k(  256) = (  -0.5000000  -0.5000000  -0.0000000), wk =   0.0039062
        k(  257) = (  -0.5000000  -0.5000000   0.1250000), wk =   0.0078125
        k(  258) = (  -0.5000000  -0.5000000   0.2500000), wk =   0.0078125
        k(  259) = (  -0.5000000  -0.5000000   0.3750000), wk =   0.0078125
        k(  260) = (  -0.5000000  -0.5000000  -0.5000000), wk =   0.0039062

     Dense  grid:    75401 G-vectors     FFT dimensions: (  54,  54,  72)

     Smooth grid:    29309 G-vectors     FFT dimensions: (  40,  40,  48)

     Dynamical RAM for                 wfc:       0.06 MB

     Dynamical RAM for     wfc (w. buffer):       3.69 MB

     Dynamical RAM for           str. fact:       0.14 MB

     Dynamical RAM for           local pot:       0.00 MB

     Dynamical RAM for          nlocal pot:       0.22 MB

     Dynamical RAM for                qrad:       5.44 MB

     Dynamical RAM for          rho,v,vnew:       0.55 MB

     Dynamical RAM for               rhoin:       0.18 MB

     Dynamical RAM for            rho*nmix:       1.15 MB

     Dynamical RAM for           G-vectors:       0.28 MB

     Dynamical RAM for          h,s,v(r/c):       0.05 MB

     Dynamical RAM for          <psi|beta>:       0.02 MB

     Dynamical RAM for                 psi:       0.22 MB

     Dynamical RAM for                hpsi:       0.22 MB

     Dynamical RAM for                spsi:       0.22 MB

     Dynamical RAM for      wfcinit/wfcrot:       0.13 MB

     Dynamical RAM for           addusdens:       3.77 MB

     Dynamical RAM for          addusforce:       3.92 MB

     Dynamical RAM for         addusstress:       3.98 MB

     Estimated static dynamical RAM per process >      12.43 MB

     Estimated max dynamical RAM per process >      16.41 MB

     Estimated total dynamical RAM >       1.03 GB

     Check: negative core charge=   -0.000003

     Initial potential from superposition of free atoms

     starting charge   31.39954, renormalised to   32.00000
     Starting wfcs are   18 randomized atomic wfcs

     total cpu time spent up to now is        1.4 secs

     Self-consistent Calculation

     iteration #  1     ecut=    80.00 Ry     beta= 0.50
     Davidson diagonalization with overlap
     ethr =  1.00E-02,  avg # of iterations =  2.0

     total cpu time spent up to now is        2.0 secs

     total energy              =    -314.91885179 Ry
     Harris-Foulkes estimate   =    -315.46101059 Ry
     estimated scf accuracy    <       0.85431905 Ry

     iteration #  2     ecut=    80.00 Ry     beta= 0.50
     Davidson diagonalization with overlap
     ethr =  2.67E-03,  avg # of iterations =  2.7

     total cpu time spent up to now is        2.8 secs

     total energy              =    -315.14668273 Ry
     Harris-Foulkes estimate   =    -315.24642234 Ry
     estimated scf accuracy    <       0.22934680 Ry

     iteration #  3     ecut=    80.00 Ry     beta= 0.50
     Davidson diagonalization with overlap
     ethr =  7.17E-04,  avg # of iterations =  2.0

     total cpu time spent up to now is        3.4 secs

     total energy              =    -315.18528893 Ry
     Harris-Foulkes estimate   =    -315.18825306 Ry
     estimated scf accuracy    <       0.00917156 Ry

     iteration #  4     ecut=    80.00 Ry     beta= 0.50
     Davidson diagonalization with overlap
     ethr =  2.87E-05,  avg # of iterations =  1.9

     total cpu time spent up to now is        4.0 secs

     total energy              =    -315.18581767 Ry
     Harris-Foulkes estimate   =    -315.18587002 Ry
     estimated scf accuracy    <       0.00050380 Ry

     iteration #  5     ecut=    80.00 Ry     beta= 0.50
     Davidson diagonalization with overlap
     ethr =  1.57E-06,  avg # of iterations =  2.0

     total cpu time spent up to now is        4.6 secs

     total energy              =    -315.18587526 Ry
     Harris-Foulkes estimate   =    -315.18588580 Ry
     estimated scf accuracy    <       0.00003749 Ry

     iteration #  6     ecut=    80.00 Ry     beta= 0.50
     Davidson diagonalization with overlap
     ethr =  1.17E-07,  avg # of iterations =  2.5

     total cpu time spent up to now is        5.3 secs

     total energy              =    -315.18588498 Ry
     Harris-Foulkes estimate   =    -315.18588469 Ry
     estimated scf accuracy    <       0.00000210 Ry

     iteration #  7     ecut=    80.00 Ry     beta= 0.50
     Davidson diagonalization with overlap
     ethr =  6.55E-09,  avg # of iterations =  2.0

     total cpu time spent up to now is        6.0 secs

     End of self-consistent calculation

          k = 0.0000 0.0000 0.0000 (  3647 PWs)   bands (ev):

   -66.3299 -66.3199 -33.3498 -33.3090 -33.3090 -33.2877 -33.2877 -33.2806
   -11.1408  -9.8756   1.9218   3.9693   3.9693   4.7310   4.7310   5.5757

     occupation numbers 
     1.0000   1.0000   1.0000   1.0000   1.0000   1.0000   1.0000   1.0000
     1.0000   1.0000   1.0000   1.0000   1.0000   1.0000   1.0000   1.0000

          k = 0.0000-0.0000 0.0987 (  3653 PWs)   bands (ev):

   -66.3296 -66.3202 -33.3474 -33.3082 -33.3082 -33.2885 -33.2885 -33.2834
   -11.0936  -9.9243   2.0002   3.9962   3.9962   4.6999   4.6999   5.2753

     occupation numbers 
     1.0000   1.0000   1.0000   1.0000   1.0000   1.0000   1.0000   1.0000
     1.0000   1.0000   1.0000   1.0000   1.0000   1.0000   1.0000   1.0000

          k = 0.0000-0.0000 0.1973 (  3696 PWs)   bands (ev):

   -66.3285 -66.3213 -33.3403 -33.3059 -33.3059 -33.2914 -33.2908 -33.2908
   -10.9587 -10.0629   2.2381   4.0738   4.0738   4.6117   4.6123   4.6123

     occupation numbers 
     1.0000   1.0000   1.0000   1.0000   1.0000   1.0000   1.0000   1.0000
     1.0000   1.0000   1.0000   1.0000   1.0000   1.0000   1.0000   1.0000

          k = 0.0000-0.0000 0.2960 (  3726 PWs)   bands (ev):

   -66.3268 -66.3230 -33.3296 -33.3031 -33.3024 -33.3024 -33.2943 -33.2943
   -10.7554 -10.2702   2.6383   3.8720   4.1923   4.1923   4.4837   4.4837

     occupation numbers 
     1.0000   1.0000   1.0000   1.0000   1.0000   1.0000   1.0000   1.0000
     1.0000   1.0000   1.0000   1.0000   1.0000   1.0000   1.0000   1.0000

          k =-0.0000 0.0000-0.3947 (  3708 PWs)   bands (ev):

   -66.3249 -66.3249 -33.3165 -33.3165 -33.2983 -33.2983 -33.2983 -33.2983
   -10.5138 -10.5134   3.1927   3.1929   4.3357   4.3357   4.3361   4.3361

     occupation numbers 
     1.0000   1.0000   1.0000   1.0000   1.0000   1.0000   1.0000   1.0000
     1.0000   1.0000   1.0000   1.0000   1.0000   1.0000   1.0000   1.0000

          k =-0.0000 0.1443-0.0000 (  3650 PWs)   bands (ev):

   -66.3295 -66.3201 -33.3473 -33.3113 -33.3103 -33.2911 -33.2877 -33.2826
   -11.0606  -9.8763   2.0497   3.6895   3.8561   4.3449   4.7860   5.4638

     occupation numbers 
     1.0000   1.0000   1.0000   1.0000   1.0000   1.0000   1.0000   1.0000
     1.0000   1.0000   1.0000   1.0000   1.0000   1.0000   1.0000   1.0000

          k =-0.0000 0.1443 0.0987 (  3655 PWs)   bands (ev):

   -66.3291 -66.3204 -33.3455 -33.3100 -33.3094 -33.2940 -33.2885 -33.2831
   -11.0155  -9.9207   2.0960   3.7381   3.8880   4.2382   4.7467   5.3343

     occupation numbers 
     1.0000   1.0000   1.0000   1.0000   1.0000   1.0000   1.0000   1.0000
     1.0000   1.0000   1.0000   1.0000   1.0000   1.0000   1.0000   1.0000

          k = 0.0000 0.1443 0.1973 (  3667 PWs)   bands (ev):

   -66.3281 -66.3215 -33.3404 -33.3070 -33.3064 -33.3013 -33.2910 -33.2853
   -10.8870 -10.0477   2.2459   3.7694   3.9803   4.0338   4.6369   5.0527

     occupation numbers 
     1.0000   1.0000   1.0000   1.0000   1.0000   1.0000   1.0000   1.0000
     1.0000   1.0000   1.0000   1.0000   1.0000   1.0000   1.0000   1.0000

          k = 0.0000 0.1443 0.2960 (  3685 PWs)   bands (ev):

   -66.3266 -66.3230 -33.3324 -33.3114 -33.3033 -33.3010 -33.2946 -33.2896
   -10.6941 -10.2392   2.5179   3.3791   4.1224   4.1884   4.4773   4.7482

     occupation numbers 
     1.0000   1.0000   1.0000   1.0000   1.0000   1.0000   1.0000   1.0000
     1.0000   1.0000   1.0000   1.0000   1.0000   1.0000   1.0000   1.0000

          k =-0.0000 0.1443-0.3947 (  3694 PWs)   bands (ev):

   -66.3248 -66.3248 -33.3223 -33.3223 -33.2990 -33.2989 -33.2951 -33.2951
   -10.4666 -10.4663   2.9105   2.9106   4.2960   4.2964   4.4545   4.4547

     occupation numbers 
     1.0000   1.0000   1.0000   1.0000   1.0000   1.0000   1.0000   1.0000
     1.0000   1.0000   1.0000   1.0000   1.0000   1.0000   1.0000   1.0000

          k =-0.0000 0.1443-0.2960 (  3685 PWs)   bands (ev):

   -66.3266 -66.3230 -33.3324 -33.3114 -33.3033 -33.3010 -33.2946 -33.2896
   -10.6941 -10.2392   2.5179   3.3791   4.1224   4.1884   4.4773   4.7482

     occupation numbers 
     1.0000   1.0000   1.0000   1.0000   1.0000   1.0000   1.0000   1.0000
     1.0000   1.0000   1.0000   1.0000   1.0000   1.0000   1.0000   1.0000

          k =-0.0000 0.1443-0.1973 (  3667 PWs)   bands (ev):

   -66.3281 -66.3215 -33.3404 -33.3070 -33.3064 -33.3013 -33.2910 -33.2853
   -10.8870 -10.0477   2.2459   3.7694   3.9803   4.0338   4.6369   5.0527

     occupation numbers 
     1.0000   1.0000   1.0000   1.0000   1.0000   1.0000   1.0000   1.0000
     1.0000   1.0000   1.0000   1.0000   1.0000   1.0000   1.0000   1.0000

          k =-0.0000 0.1443-0.0987 (  3655 PWs)   bands (ev):

   -66.3291 -66.3204 -33.3455 -33.3100 -33.3094 -33.2940 -33.2885 -33.2831
   -11.0155  -9.9207   2.0960   3.7381   3.8880   4.2382   4.7467   5.3343

     occupation numbers 
     1.0000   1.0000   1.0000   1.0000   1.0000   1.0000   1.0000   1.0000
     1.0000   1.0000   1.0000   1.0000   1.0000   1.0000   1.0000   1.0000

          k =-0.0000 0.2887-0.0000 (  3672 PWs)   bands (ev):

   -66.3282 -66.3207 -33.3405 -33.3168 -33.3133 -33.2991 -33.2883 -33.2877
   -10.8471  -9.8949   2.4079   2.9395   3.6360   3.8540   4.8674   5.1361

     occupation numbers 
     1.0000   1.0000   1.0000   1.0000   1.0000   1.0000   1.0000   1.0000
     1.0000   1.0000   1.0000   1.0000   1.0000   1.0000   1.0000   1.0000

          k =-0.0000 0.2887 0.0987 (  3667 PWs)   bands (ev):

   -66.3279 -66.3210 -33.3411 -33.3137 -33.3123 -33.3042 -33.2887 -33.2859
   -10.8083  -9.9275   2.2972   3.0645   3.6764   3.7735   4.8126   5.1519

     occupation numbers 
     1.0000   1.0000   1.0000   1.0000   1.0000   1.0000   1.0000   1.0000
     1.0000   1.0000   1.0000   1.0000   1.0000   1.0000   1.0000   1.0000

          k =-0.0000 0.2887 0.1973 (  3682 PWs)   bands (ev):

   -66.3271 -66.3218 -33.3413 -33.3144 -33.3095 -33.3058 -33.2915 -33.2842
   -10.6988 -10.0224   2.1804   3.0093   3.7937   3.8600   4.6606   5.1121

     occupation numbers 
     1.0000   1.0000   1.0000   1.0000   1.0000   1.0000   1.0000   1.0000
     1.0000   1.0000   1.0000   1.0000   1.0000   1.0000   1.0000   1.0000

          k = 0.0000 0.2887 0.2960 (  3678 PWs)   bands (ev):

   -66.3259 -66.3230 -33.3387 -33.3243 -33.3054 -33.2978 -33.2956 -33.2858
   -10.5369 -10.1697   2.1991   2.6828   3.9762   4.2217   4.4438   4.9290

     occupation numbers 
     1.0000   1.0000   1.0000   1.0000   1.0000   1.0000   1.0000   1.0000
     1.0000   1.0000   1.0000   1.0000   1.0000   1.0000   1.0000   1.0000

          k =-0.0000 0.2887-0.3947 (  3666 PWs)   bands (ev):

   -66.3245 -66.3245 -33.3329 -33.3329 -33.3005 -33.3004 -33.2906 -33.2906
   -10.3505 -10.3502   2.3770   2.3770   4.2028   4.2031   4.6120   4.6121

     occupation numbers 
     1.0000   1.0000   1.0000   1.0000   1.0000   1.0000   1.0000   1.0000
     1.0000   1.0000   1.0000   1.0000   1.0000   1.0000   1.0000   1.0000

          k =-0.0000 0.2887-0.2960 (  3678 PWs)   bands (ev):

   -66.3259 -66.3230 -33.3387 -33.3243 -33.3054 -33.2978 -33.2956 -33.2858
   -10.5369 -10.1697   2.1991   2.6828   3.9762   4.2217   4.4438   4.9290

     occupation numbers 
     1.0000   1.0000   1.0000   1.0000   1.0000   1.0000   1.0000   1.0000
     1.0000   1.0000   1.0000   1.0000   1.0000   1.0000   1.0000   1.0000

          k =-0.0000 0.2887-0.1973 (  3682 PWs)   bands (ev):

   -66.3271 -66.3218 -33.3413 -33.3144 -33.3095 -33.3058 -33.2915 -33.2842
   -10.6988 -10.0224   2.1804   3.0093   3.7937   3.8600   4.6606   5.1121

     occupation numbers 
     1.0000   1.0000   1.0000   1.0000   1.0000   1.0000   1.0000   1.0000
     1.0000   1.0000   1.0000   1.0000   1.0000   1.0000   1.0000   1.0000

          k =-0.0000 0.2887-0.0987 (  3667 PWs)   bands (ev):

   -66.3279 -66.3210 -33.3411 -33.3137 -33.3123 -33.3042 -33.2887 -33.2859
   -10.8083  -9.9275   2.2972   3.0645   3.6764   3.7735   4.8126   5.1519

     occupation numbers 
     1.0000   1.0000   1.0000   1.0000   1.0000   1.0000   1.0000   1.0000
     1.0000   1.0000   1.0000   1.0000   1.0000   1.0000   1.0000   1.0000

          k =-0.0000 0.4330-0.0000 (  3666 PWs)   bands (ev):

   -66.3266 -66.3217 -33.3319 -33.3217 -33.3161 -33.3072 -33.2962 -33.2879
   -10.5815  -9.9613   2.2491   2.9261   3.4555   3.5383   4.6638   4.9125

     occupation numbers 
     1.0000   1.0000   1.0000   1.0000   1.0000   1.0000   1.0000   1.0000
     1.0000   1.0000   1.0000   1.0000   1.0000   1.0000   1.0000   1.0000

          k =-0.0000 0.4330 0.0987 (  3677 PWs)   bands (ev):

   -66.3265 -66.3219 -33.3372 -33.3164 -33.3150 -33.3124 -33.2913 -33.2890
   -10.5525  -9.9784   2.0970   2.9561   3.5017   3.5050   4.8091   4.8450

     occupation numbers 
     1.0000   1.0000   1.0000   1.0000   1.0000   1.0000   1.0000   1.0000
     1.0000   1.0000   1.0000   1.0000   1.0000   1.0000   1.0000   1.0000

          k =-0.0000 0.4330 0.1973 (  3678 PWs)   bands (ev):

   -66.3259 -66.3224 -33.3428 -33.3254 -33.3120 -33.3036 -33.2920 -33.2862
   -10.4720 -10.0303   1.8959   2.6255   3.6366   3.8316   4.6595   4.9813

     occupation numbers 
     1.0000   1.0000   1.0000   1.0000   1.0000   1.0000   1.0000   1.0000
     1.0000   1.0000   1.0000   1.0000   1.0000   1.0000   1.0000   1.0000

          k =-0.0000 0.4330 0.2960 (  3669 PWs)   bands (ev):

   -66.3251 -66.3232 -33.3445 -33.3351 -33.3074 -33.2966 -33.2943 -33.2849
   -10.3569 -10.1167   1.8266   2.2217   3.8478   4.2885   4.3986   4.9510

     occupation numbers 
     1.0000   1.0000   1.0000   1.0000   1.0000   1.0000   1.0000   1.0000
     1.0000   1.0000   1.0000   1.0000   1.0000   1.0000   1.0000   1.0000

          k =-0.0000 0.4330-0.3947 (  3682 PWs)   bands (ev):

   -66.3242 -66.3242 -33.3418 -33.3418 -33.3020 -33.3020 -33.2877 -33.2877
   -10.2311 -10.2307   1.9367   1.9367   4.1129   4.1132   4.6953   4.6954

     occupation numbers 
     1.0000   1.0000   1.0000   1.0000   1.0000   1.0000   1.0000   1.0000
     1.0000   1.0000   1.0000   1.0000   1.0000   1.0000   1.0000   1.0000

          k =-0.0000 0.4330-0.2960 (  3669 PWs)   bands (ev):

   -66.3251 -66.3232 -33.3445 -33.3351 -33.3074 -33.2966 -33.2943 -33.2849
   -10.3569 -10.1167   1.8266   2.2217   3.8478   4.2885   4.3986   4.9510

     occupation numbers 
     1.0000   1.0000   1.0000   1.0000   1.0000   1.0000   1.0000   1.0000
     1.0000   1.0000   1.0000   1.0000   1.0000   1.0000   1.0000   1.0000

          k =-0.0000 0.4330-0.1973 (  3678 PWs)   bands (ev):

   -66.3259 -66.3224 -33.3428 -33.3254 -33.3120 -33.3036 -33.2920 -33.2862
   -10.4720 -10.0303   1.8959   2.6255   3.6366   3.8316   4.6595   4.9813

     occupation numbers 
     1.0000   1.0000   1.0000   1.0000   1.0000   1.0000   1.0000   1.0000
     1.0000   1.0000   1.0000   1.0000   1.0000   1.0000   1.0000   1.0000

          k =-0.0000 0.4330-0.0987 (  3677 PWs)   bands (ev):

   -66.3265 -66.3219 -33.3372 -33.3164 -33.3150 -33.3124 -33.2913 -33.2890
   -10.5525  -9.9784   2.0970   2.9561   3.5017   3.5050   4.8091   4.8450

     occupation numbers 
     1.0000   1.0000   1.0000   1.0000   1.0000   1.0000   1.0000   1.0000
     1.0000   1.0000   1.0000   1.0000   1.0000   1.0000   1.0000   1.0000

          k = 0.0000-0.5774 0.0000 (  3662 PWs)   bands (ev):

   -66.3257 -66.3224 -33.3285 -33.3217 -33.3172 -33.3108 -33.3010 -33.2880
   -10.4295 -10.0293   1.9950   3.2693   3.3879   3.4152   4.3441   4.9248

     occupation numbers 
     1.0000   1.0000   1.0000   1.0000   1.0000   1.0000   1.0000   1.0000
     1.0000   1.0000   1.0000   1.0000   1.0000   1.0000   1.0000   1.0000

          k = 0.0000-0.5774 0.0987 (  3674 PWs)   bands (ev):

   -66.3256 -66.3225 -33.3361 -33.3188 -33.3161 -33.3128 -33.2946 -33.2891
   -10.4076 -10.0369   1.8890   3.0802   3.4362   3.4554   4.5997   4.8526

     occupation numbers 
     1.0000   1.0000   1.0000   1.0000   1.0000   1.0000   1.0000   1.0000
     1.0000   1.0000   1.0000   1.0000   1.0000   1.0000   1.0000   1.0000

          k = 0.0000-0.5774 0.1973 (  3666 PWs)   bands (ev):

   -66.3252 -66.3229 -33.3434 -33.3300 -33.3129 -33.3017 -33.2923 -33.2879
   -10.3477 -10.0623   1.7209   2.5380   3.5770   3.8653   4.6549   4.8920

     occupation numbers 
     1.0000   1.0000   1.0000   1.0000   1.0000   1.0000   1.0000   1.0000
     1.0000   1.0000   1.0000   1.0000   1.0000   1.0000   1.0000   1.0000

          k = 0.0000-0.5774 0.2960 (  3670 PWs)   bands (ev):

   -66.3247 -66.3234 -33.3467 -33.3394 -33.3082 -33.2970 -33.2926 -33.2851
   -10.2653 -10.1099   1.6578   2.0729   3.7981   4.3241   4.3781   4.9370

     occupation numbers 
     1.0000   1.0000   1.0000   1.0000   1.0000   1.0000   1.0000   1.0000
     1.0000   1.0000   1.0000   1.0000   1.0000   1.0000   1.0000   1.0000

          k = 0.0000-0.5774-0.3947 (  3656 PWs)   bands (ev):

   -66.3241 -66.3240 -33.3453 -33.3453 -33.3026 -33.3026 -33.2867 -33.2867
   -10.1805 -10.1802   1.7700   1.7701   4.0766   4.0769   4.7181   4.7182

     occupation numbers 
     1.0000   1.0000   1.0000   1.0000   1.0000   1.0000   1.0000   1.0000
     1.0000   1.0000   1.0000   1.0000   1.0000   1.0000   1.0000   1.0000

          k = 0.1250 0.0722 0.0000 (  3650 PWs)   bands (ev):

   -66.3295 -66.3201 -33.3473 -33.3113 -33.3103 -33.2911 -33.2877 -33.2826
   -11.0606  -9.8763   2.0497   3.6895   3.8561   4.3449   4.7860   5.4638

     occupation numbers 
     1.0000   1.0000   1.0000   1.0000   1.0000   1.0000   1.0000   1.0000
     1.0000   1.0000   1.0000   1.0000   1.0000   1.0000   1.0000   1.0000

          k = 0.1250 0.0722 0.0987 (  3655 PWs)   bands (ev):

   -66.3291 -66.3204 -33.3455 -33.3100 -33.3094 -33.2940 -33.2885 -33.2831
   -11.0155  -9.9207   2.0960   3.7381   3.8880   4.2382   4.7467   5.3343

     occupation numbers 
     1.0000   1.0000   1.0000   1.0000   1.0000   1.0000   1.0000   1.0000
     1.0000   1.0000   1.0000   1.0000   1.0000   1.0000   1.0000   1.0000

          k = 0.1250 0.0722 0.1973 (  3667 PWs)   bands (ev):

   -66.3281 -66.3215 -33.3404 -33.3070 -33.3064 -33.3013 -33.2910 -33.2853
   -10.8870 -10.0477   2.2459   3.7694   3.9803   4.0338   4.6369   5.0527

     occupation numbers 
     1.0000   1.0000   1.0000   1.0000   1.0000   1.0000   1.0000   1.0000
     1.0000   1.0000   1.0000   1.0000   1.0000   1.0000   1.0000   1.0000

          k = 0.1250 0.0722 0.2960 (  3685 PWs)   bands (ev):

   -66.3266 -66.3230 -33.3324 -33.3114 -33.3033 -33.3010 -33.2946 -33.2896
   -10.6941 -10.2392   2.5179   3.3791   4.1224   4.1884   4.4773   4.7482

     occupation numbers 
     1.0000   1.0000   1.0000   1.0000   1.0000   1.0000   1.0000   1.0000
     1.0000   1.0000   1.0000   1.0000   1.0000   1.0000   1.0000   1.0000

          k = 0.1250 0.0722-0.3947 (  3694 PWs)   bands (ev):

   -66.3248 -66.3248 -33.3223 -33.3223 -33.2990 -33.2989 -33.2951 -33.2951
   -10.4666 -10.4663   2.9105   2.9106   4.2960   4.2964   4.4545   4.4547

     occupation numbers 
     1.0000   1.0000   1.0000   1.0000   1.0000   1.0000   1.0000   1.0000
     1.0000   1.0000   1.0000   1.0000   1.0000   1.0000   1.0000   1.0000

          k = 0.1250 0.0722-0.2960 (  3685 PWs)   bands (ev):

   -66.3266 -66.3230 -33.3324 -33.3114 -33.3033 -33.3010 -33.2946 -33.2896
   -10.6941 -10.2392   2.5179   3.3791   4.1224   4.1884   4.4773   4.7482

     occupation numbers 
     1.0000   1.0000   1.0000   1.0000   1.0000   1.0000   1.0000   1.0000
     1.0000   1.0000   1.0000   1.0000   1.0000   1.0000   1.0000   1.0000

          k = 0.1250 0.0722-0.1973 (  3667 PWs)   bands (ev):

   -66.3281 -66.3215 -33.3404 -33.3070 -33.3064 -33.3013 -33.2910 -33.2853
   -10.8870 -10.0477   2.2458   3.7694   3.9803   4.0338   4.6369   5.0527

     occupation numbers 
     1.0000   1.0000   1.0000   1.0000   1.0000   1.0000   1.0000   1.0000
     1.0000   1.0000   1.0000   1.0000   1.0000   1.0000   1.0000   1.0000

          k = 0.1250 0.0722-0.0987 (  3655 PWs)   bands (ev):

   -66.3291 -66.3204 -33.3455 -33.3100 -33.3094 -33.2940 -33.2885 -33.2831
   -11.0155  -9.9207   2.0960   3.7381   3.8880   4.2382   4.7467   5.3343

     occupation numbers 
     1.0000   1.0000   1.0000   1.0000   1.0000   1.0000   1.0000   1.0000
     1.0000   1.0000   1.0000   1.0000   1.0000   1.0000   1.0000   1.0000

          k = 0.1250 0.2165 0.0000 (  3681 PWs)   bands (ev):

   -66.3286 -66.3205 -33.3426 -33.3144 -33.3133 -33.2964 -33.2880 -33.2865
   -10.9134  -9.8862   2.2942   3.2793   3.4498   4.1397   4.7863   5.2438

     occupation numbers 
     1.0000   1.0000   1.0000   1.0000   1.0000   1.0000   1.0000   1.0000
     1.0000   1.0000   1.0000   1.0000   1.0000   1.0000   1.0000   1.0000

          k = 0.1250 0.2165 0.0987 (  3667 PWs)   bands (ev):

   -66.3283 -66.3208 -33.3424 -33.3124 -33.3120 -33.3010 -33.2890 -33.2847
   -10.8726  -9.9225   2.2611   3.2670   3.5792   4.0375   4.7331   5.2333

     occupation numbers 
     1.0000   1.0000   1.0000   1.0000   1.0000   1.0000   1.0000   1.0000
     1.0000   1.0000   1.0000   1.0000   1.0000   1.0000   1.0000   1.0000

          k = 0.1250 0.2165 0.1973 (  3674 PWs)   bands (ev):

   -66.3274 -66.3217 -33.3409 -33.3118 -33.3080 -33.3059 -33.2916 -33.2840
   -10.7567 -10.0276   2.2379   3.1482   3.8879   3.9081   4.5858   5.1481

     occupation numbers 
     1.0000   1.0000   1.0000   1.0000   1.0000   1.0000   1.0000   1.0000
     1.0000   1.0000   1.0000   1.0000   1.0000   1.0000   1.0000   1.0000

          k = 0.1250 0.2165 0.2960 (  3687 PWs)   bands (ev):

   -66.3261 -66.3230 -33.3368 -33.3208 -33.3051 -33.2984 -33.2957 -33.2863
   -10.5847 -10.1891   2.3208   2.8541   3.9674   4.2624   4.3778   4.9420

     occupation numbers 
     1.0000   1.0000   1.0000   1.0000   1.0000   1.0000   1.0000   1.0000
     1.0000   1.0000   1.0000   1.0000   1.0000   1.0000   1.0000   1.0000

          k = 0.1250 0.2165-0.3947 (  3682 PWs)   bands (ev):

   -66.3246 -66.3246 -33.3299 -33.3299 -33.3004 -33.3004 -33.2914 -33.2914
   -10.3849 -10.3846   2.5384   2.5384   4.1521   4.1524   4.6323   4.6324

     occupation numbers 
     1.0000   1.0000   1.0000   1.0000   1.0000   1.0000   1.0000   1.0000
     1.0000   1.0000   1.0000   1.0000   1.0000   1.0000   1.0000   1.0000

          k = 0.1250 0.2165-0.2960 (  3687 PWs)   bands (ev):

   -66.3261 -66.3230 -33.3368 -33.3208 -33.3051 -33.2984 -33.2957 -33.2863
   -10.5847 -10.1891   2.3208   2.8541   3.9674   4.2624   4.3778   4.9420

     occupation numbers 
     1.0000   1.0000   1.0000   1.0000   1.0000   1.0000   1.0000   1.0000
     1.0000   1.0000   1.0000   1.0000   1.0000   1.0000   1.0000   1.0000

          k = 0.1250 0.2165-0.1973 (  3674 PWs)   bands (ev):

   -66.3274 -66.3217 -33.3409 -33.3118 -33.3080 -33.3059 -33.2916 -33.2840
   -10.7567 -10.0276   2.2379   3.1482   3.8879   3.9081   4.5858   5.1481

     occupation numbers 
     1.0000   1.0000   1.0000   1.0000   1.0000   1.0000   1.0000   1.0000
     1.0000   1.0000   1.0000   1.0000   1.0000   1.0000   1.0000   1.0000

          k = 0.1250 0.2165-0.0987 (  3667 PWs)   bands (ev):

   -66.3283 -66.3208 -33.3424 -33.3124 -33.3120 -33.3010 -33.2890 -33.2847
   -10.8726  -9.9225   2.2611   3.2670   3.5792   4.0375   4.7331   5.2333

     occupation numbers 
     1.0000   1.0000   1.0000   1.0000   1.0000   1.0000   1.0000   1.0000
     1.0000   1.0000   1.0000   1.0000   1.0000   1.0000   1.0000   1.0000

          k = 0.1250 0.3608-0.0000 (  3678 PWs)   bands (ev):

   -66.3272 -66.3213 -33.3346 -33.3194 -33.3165 -33.3039 -33.2935 -33.2887
   -10.6701  -9.9317   2.5377   2.7400   3.2600   3.8546   4.7786   4.8421

     occupation numbers 
     1.0000   1.0000   1.0000   1.0000   1.0000   1.0000   1.0000   1.0000
     1.0000   1.0000   1.0000   1.0000   1.0000   1.0000   1.0000   1.0000

          k = 0.1250 0.3608 0.0987 (  3679 PWs)   bands (ev):

   -66.3269 -66.3216 -33.3378 -33.3176 -33.3127 -33.3098 -33.2899 -33.2891
   -10.6376  -9.9542   2.3579   2.7291   3.5126   3.7142   4.7004   4.9575

     occupation numbers 
     1.0000   1.0000   1.0000   1.0000   1.0000   1.0000   1.0000   1.0000
     1.0000   1.0000   1.0000   1.0000   1.0000   1.0000   1.0000   1.0000

          k = 0.1250 0.3608 0.1973 (  3675 PWs)   bands (ev):

   -66.3263 -66.3222 -33.3417 -33.3223 -33.3123 -33.3035 -33.2928 -33.2850
   -10.5464 -10.0210   2.1336   2.6065   3.5753   3.9696   4.4968   5.0857

     occupation numbers 
     1.0000   1.0000   1.0000   1.0000   1.0000   1.0000   1.0000   1.0000
     1.0000   1.0000   1.0000   1.0000   1.0000   1.0000   1.0000   1.0000

          k = 0.1250 0.3608 0.2960 (  3668 PWs)   bands (ev):

   -66.3254 -66.3231 -33.3423 -33.3316 -33.3081 -33.2974 -33.2945 -33.2844
   -10.4144 -10.1288   2.0469   2.3534   3.6677   4.2061   4.4379   5.0463

     occupation numbers 
     1.0000   1.0000   1.0000   1.0000   1.0000   1.0000   1.0000   1.0000
     1.0000   1.0000   1.0000   1.0000   1.0000   1.0000   1.0000   1.0000

          k = 0.1250 0.3608-0.3947 (  3668 PWs)   bands (ev):

   -66.3243 -66.3242 -33.3388 -33.3388 -33.3027 -33.3027 -33.2878 -33.2878
   -10.2668 -10.2664   2.1303   2.1303   3.9109   3.9112   4.8142   4.8142

     occupation numbers 
     1.0000   1.0000   1.0000   1.0000   1.0000   1.0000   1.0000   1.0000
     1.0000   1.0000   1.0000   1.0000   1.0000   1.0000   1.0000   1.0000

          k = 0.1250 0.3608-0.2960 (  3668 PWs)   bands (ev):

   -66.3254 -66.3231 -33.3423 -33.3316 -33.3081 -33.2974 -33.2945 -33.2844
   -10.4144 -10.1288   2.0469   2.3534   3.6677   4.2061   4.4379   5.0463

     occupation numbers 
     1.0000   1.0000   1.0000   1.0000   1.0000   1.0000   1.0000   1.0000
     1.0000   1.0000   1.0000   1.0000   1.0000   1.0000   1.0000   1.0000

          k = 0.1250 0.3608-0.1973 (  3675 PWs)   bands (ev):

   -66.3263 -66.3222 -33.3417 -33.3223 -33.3123 -33.3035 -33.2928 -33.2850
   -10.5464 -10.0210   2.1336   2.6065   3.5753   3.9696   4.4968   5.0857

     occupation numbers 
     1.0000   1.0000   1.0000   1.0000   1.0000   1.0000   1.0000   1.0000
     1.0000   1.0000   1.0000   1.0000   1.0000   1.0000   1.0000   1.0000

          k = 0.1250 0.3608-0.0987 (  3679 PWs)   bands (ev):

   -66.3269 -66.3216 -33.3378 -33.3176 -33.3127 -33.3098 -33.2899 -33.2891
   -10.6376  -9.9542   2.3579   2.7291   3.5126   3.7142   4.7004   4.9575

     occupation numbers 
     1.0000   1.0000   1.0000   1.0000   1.0000   1.0000   1.0000   1.0000
     1.0000   1.0000   1.0000   1.0000   1.0000   1.0000   1.0000   1.0000

          k = 0.1250 0.5052-0.0000 (  3682 PWs)   bands (ev):

   -66.3257 -66.3224 -33.3277 -33.3223 -33.3170 -33.3103 -33.3010 -33.2891
   -10.4360 -10.0233   2.0842   3.1882   3.3217   3.5219   4.3823   4.7780

     occupation numbers 
     1.0000   1.0000   1.0000   1.0000   1.0000   1.0000   1.0000   1.0000
     1.0000   1.0000   1.0000   1.0000   1.0000   1.0000   1.0000   1.0000

          k = 0.1250 0.5052 0.0987 (  3683 PWs)   bands (ev):

   -66.3256 -66.3225 -33.3348 -33.3203 -33.3172 -33.3105 -33.2946 -33.2902
   -10.4137 -10.0314   2.0144   2.9438   3.3053   3.6715   4.5872   4.7259

     occupation numbers 
     1.0000   1.0000   1.0000   1.0000   1.0000   1.0000   1.0000   1.0000
     1.0000   1.0000   1.0000   1.0000   1.0000   1.0000   1.0000   1.0000

          k = 0.1250 0.5052 0.1973 (  3678 PWs)   bands (ev):

   -66.3252 -66.3229 -33.3421 -33.3298 -33.3152 -33.3000 -33.2937 -33.2875
   -10.3526 -10.0583   1.8733   2.5524   3.2373   4.1359   4.4261   4.9513

     occupation numbers 
     1.0000   1.0000   1.0000   1.0000   1.0000   1.0000   1.0000   1.0000
     1.0000   1.0000   1.0000   1.0000   1.0000   1.0000   1.0000   1.0000

          k = 0.1250 0.5052 0.2960 (  3678 PWs)   bands (ev):

   -66.3247 -66.3234 -33.3456 -33.3389 -33.3102 -33.2986 -33.2912 -33.2845
   -10.2684 -10.1082   1.8008   2.1494   3.4277   4.0915   4.5787   5.0500

     occupation numbers 
     1.0000   1.0000   1.0000   1.0000   1.0000   1.0000   1.0000   1.0000
     1.0000   1.0000   1.0000   1.0000   1.0000   1.0000   1.0000   1.0000

          k = 0.1250 0.5052-0.3947 (  3670 PWs)   bands (ev):

   -66.3241 -66.3240 -33.3445 -33.3445 -33.3044 -33.3044 -33.2858 -33.2858
   -10.1813 -10.1810   1.8857   1.8858   3.7367   3.7370   4.9091   4.9092

     occupation numbers 
     1.0000   1.0000   1.0000   1.0000   1.0000   1.0000   1.0000   1.0000
     1.0000   1.0000   1.0000   1.0000   1.0000   1.0000   1.0000   1.0000

          k = 0.1250 0.5052-0.2960 (  3678 PWs)   bands (ev):

   -66.3247 -66.3234 -33.3456 -33.3389 -33.3102 -33.2986 -33.2912 -33.2845
   -10.2684 -10.1082   1.8008   2.1494   3.4277   4.0915   4.5787   5.0500

     occupation numbers 
     1.0000   1.0000   1.0000   1.0000   1.0000   1.0000   1.0000   1.0000
     1.0000   1.0000   1.0000   1.0000   1.0000   1.0000   1.0000   1.0000

          k = 0.1250 0.5052-0.1973 (  3678 PWs)   bands (ev):

   -66.3252 -66.3229 -33.3421 -33.3298 -33.3152 -33.3000 -33.2937 -33.2875
   -10.3526 -10.0583   1.8733   2.5524   3.2373   4.1359   4.4261   4.9513

     occupation numbers 
     1.0000   1.0000   1.0000   1.0000   1.0000   1.0000   1.0000   1.0000
     1.0000   1.0000   1.0000   1.0000   1.0000   1.0000   1.0000   1.0000

          k = 0.1250 0.5052-0.0987 (  3683 PWs)   bands (ev):

   -66.3256 -66.3225 -33.3348 -33.3203 -33.3172 -33.3105 -33.2946 -33.2902
   -10.4137 -10.0314   2.0144   2.9438   3.3053   3.6715   4.5872   4.7259

     occupation numbers 
     1.0000   1.0000   1.0000   1.0000   1.0000   1.0000   1.0000   1.0000
     1.0000   1.0000   1.0000   1.0000   1.0000   1.0000   1.0000   1.0000

          k = 0.1250-0.5052 0.0000 (  3682 PWs)   bands (ev):

   -66.3257 -66.3224 -33.3277 -33.3223 -33.3170 -33.3103 -33.3010 -33.2891
   -10.4360 -10.0233   2.0842   3.1882   3.3217   3.5219   4.3823   4.7780

     occupation numbers 
     1.0000   1.0000   1.0000   1.0000   1.0000   1.0000   1.0000   1.0000
     1.0000   1.0000   1.0000   1.0000   1.0000   1.0000   1.0000   1.0000

          k = 0.1250-0.5052 0.0987 (  3683 PWs)   bands (ev):

   -66.3256 -66.3225 -33.3348 -33.3203 -33.3172 -33.3105 -33.2946 -33.2902
   -10.4137 -10.0314   2.0144   2.9438   3.3053   3.6715   4.5872   4.7259

     occupation numbers 
     1.0000   1.0000   1.0000   1.0000   1.0000   1.0000   1.0000   1.0000
     1.0000   1.0000   1.0000   1.0000   1.0000   1.0000   1.0000   1.0000

          k = 0.1250-0.5052 0.1973 (  3678 PWs)   bands (ev):

   -66.3252 -66.3229 -33.3421 -33.3298 -33.3152 -33.3000 -33.2937 -33.2875
   -10.3526 -10.0583   1.8733   2.5524   3.2373   4.1359   4.4261   4.9513

     occupation numbers 
     1.0000   1.0000   1.0000   1.0000   1.0000   1.0000   1.0000   1.0000
     1.0000   1.0000   1.0000   1.0000   1.0000   1.0000   1.0000   1.0000

          k = 0.1250-0.5052 0.2960 (  3678 PWs)   bands (ev):

   -66.3247 -66.3234 -33.3456 -33.3389 -33.3102 -33.2986 -33.2912 -33.2845
   -10.2684 -10.1082   1.8008   2.1494   3.4277   4.0915   4.5787   5.0500

     occupation numbers 
     1.0000   1.0000   1.0000   1.0000   1.0000   1.0000   1.0000   1.0000
     1.0000   1.0000   1.0000   1.0000   1.0000   1.0000   1.0000   1.0000

          k = 0.1250-0.5052-0.3947 (  3670 PWs)   bands (ev):

   -66.3241 -66.3240 -33.3445 -33.3445 -33.3044 -33.3044 -33.2858 -33.2858
   -10.1813 -10.1810   1.8857   1.8858   3.7367   3.7370   4.9091   4.9092

     occupation numbers 
     1.0000   1.0000   1.0000   1.0000   1.0000   1.0000   1.0000   1.0000
     1.0000   1.0000   1.0000   1.0000   1.0000   1.0000   1.0000   1.0000

          k = 0.1250-0.5052-0.2960 (  3678 PWs)   bands (ev):

   -66.3247 -66.3234 -33.3456 -33.3389 -33.3102 -33.2986 -33.2912 -33.2845
   -10.2684 -10.1082   1.8008   2.1494   3.4277   4.0915   4.5787   5.0500

     occupation numbers 
     1.0000   1.0000   1.0000   1.0000   1.0000   1.0000   1.0000   1.0000
     1.0000   1.0000   1.0000   1.0000   1.0000   1.0000   1.0000   1.0000

          k = 0.1250-0.5052-0.1973 (  3678 PWs)   bands (ev):

   -66.3252 -66.3229 -33.3421 -33.3298 -33.3152 -33.3000 -33.2937 -33.2875
   -10.3526 -10.0583   1.8733   2.5524   3.2373   4.1359   4.4261   4.9513

     occupation numbers 
     1.0000   1.0000   1.0000   1.0000   1.0000   1.0000   1.0000   1.0000
     1.0000   1.0000   1.0000   1.0000   1.0000   1.0000   1.0000   1.0000

          k = 0.1250-0.5052-0.0987 (  3683 PWs)   bands (ev):

   -66.3256 -66.3225 -33.3348 -33.3203 -33.3172 -33.3105 -33.2946 -33.2902
   -10.4137 -10.0314   2.0144   2.9438   3.3053   3.6715   4.5872   4.7259

     occupation numbers 
     1.0000   1.0000   1.0000   1.0000   1.0000   1.0000   1.0000   1.0000
     1.0000   1.0000   1.0000   1.0000   1.0000   1.0000   1.0000   1.0000

          k = 0.1250-0.3608 0.0000 (  3678 PWs)   bands (ev):

   -66.3272 -66.3213 -33.3346 -33.3194 -33.3165 -33.3039 -33.2935 -33.2887
   -10.6701  -9.9317   2.5377   2.7400   3.2600   3.8546   4.7786   4.8421

     occupation numbers 
     1.0000   1.0000   1.0000   1.0000   1.0000   1.0000   1.0000   1.0000
     1.0000   1.0000   1.0000   1.0000   1.0000   1.0000   1.0000   1.0000

          k = 0.1250-0.3608 0.0987 (  3679 PWs)   bands (ev):

   -66.3269 -66.3216 -33.3378 -33.3176 -33.3127 -33.3098 -33.2899 -33.2891
   -10.6375  -9.9542   2.3579   2.7291   3.5126   3.7142   4.7004   4.9575

     occupation numbers 
     1.0000   1.0000   1.0000   1.0000   1.0000   1.0000   1.0000   1.0000
     1.0000   1.0000   1.0000   1.0000   1.0000   1.0000   1.0000   1.0000

          k = 0.1250-0.3608 0.1973 (  3675 PWs)   bands (ev):

   -66.3263 -66.3222 -33.3417 -33.3223 -33.3123 -33.3035 -33.2928 -33.2850
   -10.5464 -10.0210   2.1336   2.6065   3.5753   3.9696   4.4968   5.0857

     occupation numbers 
     1.0000   1.0000   1.0000   1.0000   1.0000   1.0000   1.0000   1.0000
     1.0000   1.0000   1.0000   1.0000   1.0000   1.0000   1.0000   1.0000

          k = 0.1250-0.3608 0.2960 (  3668 PWs)   bands (ev):

   -66.3254 -66.3231 -33.3423 -33.3316 -33.3081 -33.2974 -33.2945 -33.2844
   -10.4144 -10.1288   2.0469   2.3534   3.6677   4.2061   4.4379   5.0463

     occupation numbers 
[...]
     1.0000   1.0000   1.0000   1.0000   1.0000   1.0000   1.0000   1.0000

          k =-0.5000-0.1443 0.0987 (  3683 PWs)   bands (ev):

   -66.3256 -66.3225 -33.3348 -33.3203 -33.3172 -33.3105 -33.2946 -33.2902
   -10.4137 -10.0314   2.0144   2.9438   3.3053   3.6715   4.5872   4.7259

     occupation numbers 
     1.0000   1.0000   1.0000   1.0000   1.0000   1.0000   1.0000   1.0000
     1.0000   1.0000   1.0000   1.0000   1.0000   1.0000   1.0000   1.0000

          k =-0.5000-0.1443 0.1973 (  3678 PWs)   bands (ev):

   -66.3252 -66.3229 -33.3421 -33.3298 -33.3152 -33.3000 -33.2937 -33.2875
   -10.3526 -10.0583   1.8733   2.5524   3.2373   4.1359   4.4261   4.9513

     occupation numbers 
     1.0000   1.0000   1.0000   1.0000   1.0000   1.0000   1.0000   1.0000
     1.0000   1.0000   1.0000   1.0000   1.0000   1.0000   1.0000   1.0000

          k =-0.5000-0.1443 0.2960 (  3678 PWs)   bands (ev):

   -66.3247 -66.3234 -33.3456 -33.3389 -33.3102 -33.2986 -33.2912 -33.2845
   -10.2684 -10.1082   1.8008   2.1494   3.4277   4.0915   4.5787   5.0500

     occupation numbers 
     1.0000   1.0000   1.0000   1.0000   1.0000   1.0000   1.0000   1.0000
     1.0000   1.0000   1.0000   1.0000   1.0000   1.0000   1.0000   1.0000

          k =-0.5000-0.1443-0.3947 (  3670 PWs)   bands (ev):

   -66.3241 -66.3240 -33.3445 -33.3445 -33.3044 -33.3044 -33.2858 -33.2858
   -10.1813 -10.1810   1.8857   1.8858   3.7367   3.7370   4.9091   4.9092

     occupation numbers 
     1.0000   1.0000   1.0000   1.0000   1.0000   1.0000   1.0000   1.0000
     1.0000   1.0000   1.0000   1.0000   1.0000   1.0000   1.0000   1.0000

          k =-0.5000-0.1443-0.2960 (  3678 PWs)   bands (ev):

   -66.3247 -66.3234 -33.3456 -33.3389 -33.3102 -33.2986 -33.2912 -33.2845
   -10.2684 -10.1082   1.8008   2.1494   3.4277   4.0915   4.5787   5.0500

     occupation numbers 
     1.0000   1.0000   1.0000   1.0000   1.0000   1.0000   1.0000   1.0000
     1.0000   1.0000   1.0000   1.0000   1.0000   1.0000   1.0000   1.0000

          k =-0.5000-0.1443-0.1973 (  3678 PWs)   bands (ev):

   -66.3252 -66.3229 -33.3421 -33.3298 -33.3152 -33.3000 -33.2937 -33.2875
   -10.3526 -10.0583   1.8733   2.5524   3.2373   4.1359   4.4261   4.9513

     occupation numbers 
     1.0000   1.0000   1.0000   1.0000   1.0000   1.0000   1.0000   1.0000
     1.0000   1.0000   1.0000   1.0000   1.0000   1.0000   1.0000   1.0000

          k =-0.5000-0.1443-0.0987 (  3683 PWs)   bands (ev):

   -66.3256 -66.3225 -33.3348 -33.3203 -33.3172 -33.3105 -33.2946 -33.2902
   -10.4137 -10.0314   2.0144   2.9438   3.3053   3.6716   4.5872   4.7259

     occupation numbers 
     1.0000   1.0000   1.0000   1.0000   1.0000   1.0000   1.0000   1.0000
     1.0000   1.0000   1.0000   1.0000   1.0000   1.0000   1.0000   1.0000

          k =-0.5000 0.0000-0.0000 (  3669 PWs)   bands (ev):

   -66.3257 -66.3224 -33.3265 -33.3230 -33.3169 -33.3096 -33.3009 -33.2903
   -10.4423 -10.0174   2.1977   3.0578   3.2762   3.6669   4.4212   4.5980

     occupation numbers 
     1.0000   1.0000   1.0000   1.0000   1.0000   1.0000   1.0000   1.0000
     1.0000   1.0000   1.0000   1.0000   1.0000   1.0000   1.0000   1.0000

          k =-0.5000 0.0000 0.0987 (  3677 PWs)   bands (ev):

   -66.3256 -66.3225 -33.3333 -33.3229 -33.3165 -33.3092 -33.2943 -33.2915
   -10.4196 -10.0261   2.2260   2.6528   3.4178   3.7346   4.4943   4.6592

     occupation numbers 
     1.0000   1.0000   1.0000   1.0000   1.0000   1.0000   1.0000   1.0000
     1.0000   1.0000   1.0000   1.0000   1.0000   1.0000   1.0000   1.0000

          k =-0.5000 0.0000 0.1973 (  3663 PWs)   bands (ev):

   -66.3252 -66.3229 -33.3406 -33.3298 -33.3169 -33.2988 -33.2948 -33.2873
   -10.3574 -10.0545   2.2503   2.2742   3.1274   4.1804   4.3034   4.9706

     occupation numbers 
     1.0000   1.0000   1.0000   1.0000   1.0000   1.0000   1.0000   1.0000
     1.0000   1.0000   1.0000   1.0000   1.0000   1.0000   1.0000   1.0000

          k =-0.5000 0.0000 0.2960 (  3673 PWs)   bands (ev):

   -66.3247 -66.3234 -33.3444 -33.3384 -33.3121 -33.3001 -33.2901 -33.2840
   -10.2714 -10.1066   2.0601   2.1466   3.1552   3.8266   4.7300   5.1111

     occupation numbers 
     1.0000   1.0000   1.0000   1.0000   1.0000   1.0000   1.0000   1.0000
     1.0000   1.0000   1.0000   1.0000   1.0000   1.0000   1.0000   1.0000

          k =-0.5000 0.0000-0.3947 (  3670 PWs)   bands (ev):

   -66.3241 -66.3240 -33.3436 -33.3436 -33.3061 -33.3061 -33.2850 -33.2850
   -10.1821 -10.1817   2.0310   2.0310   3.4427   3.4429   5.0253   5.0253

     occupation numbers 
     1.0000   1.0000   1.0000   1.0000   1.0000   1.0000   1.0000   1.0000
     1.0000   1.0000   1.0000   1.0000   1.0000   1.0000   1.0000   1.0000

          k =-0.5000 0.0000-0.2960 (  3673 PWs)   bands (ev):

   -66.3247 -66.3234 -33.3444 -33.3384 -33.3121 -33.3001 -33.2901 -33.2840
   -10.2714 -10.1066   2.0601   2.1466   3.1552   3.8266   4.7300   5.1111

     occupation numbers 
     1.0000   1.0000   1.0000   1.0000   1.0000   1.0000   1.0000   1.0000
     1.0000   1.0000   1.0000   1.0000   1.0000   1.0000   1.0000   1.0000

          k =-0.5000 0.0000-0.1973 (  3663 PWs)   bands (ev):

   -66.3252 -66.3229 -33.3406 -33.3298 -33.3169 -33.2988 -33.2948 -33.2873
   -10.3574 -10.0545   2.2503   2.2742   3.1274   4.1804   4.3034   4.9706

     occupation numbers 
     1.0000   1.0000   1.0000   1.0000   1.0000   1.0000   1.0000   1.0000
     1.0000   1.0000   1.0000   1.0000   1.0000   1.0000   1.0000   1.0000

          k =-0.5000 0.0000-0.0987 (  3677 PWs)   bands (ev):

   -66.3256 -66.3225 -33.3333 -33.3229 -33.3165 -33.3092 -33.2943 -33.2915
   -10.4196 -10.0261   2.2260   2.6528   3.4178   3.7346   4.4943   4.6592

     occupation numbers 
     1.0000   1.0000   1.0000   1.0000   1.0000   1.0000   1.0000   1.0000
     1.0000   1.0000   1.0000   1.0000   1.0000   1.0000   1.0000   1.0000

          k =-0.5000 0.1443-0.0000 (  3682 PWs)   bands (ev):

   -66.3257 -66.3224 -33.3277 -33.3223 -33.3170 -33.3103 -33.3010 -33.2891
   -10.4360 -10.0233   2.0842   3.1882   3.3217   3.5219   4.3823   4.7779

     occupation numbers 
     1.0000   1.0000   1.0000   1.0000   1.0000   1.0000   1.0000   1.0000
     1.0000   1.0000   1.0000   1.0000   1.0000   1.0000   1.0000   1.0000

          k =-0.5000 0.1443 0.0987 (  3683 PWs)   bands (ev):

   -66.3256 -66.3225 -33.3348 -33.3203 -33.3172 -33.3105 -33.2946 -33.2902
   -10.4137 -10.0314   2.0144   2.9438   3.3053   3.6715   4.5872   4.7259

     occupation numbers 
     1.0000   1.0000   1.0000   1.0000   1.0000   1.0000   1.0000   1.0000
     1.0000   1.0000   1.0000   1.0000   1.0000   1.0000   1.0000   1.0000

          k =-0.5000 0.1443 0.1973 (  3678 PWs)   bands (ev):

   -66.3252 -66.3229 -33.3421 -33.3298 -33.3152 -33.3000 -33.2937 -33.2875
   -10.3526 -10.0583   1.8733   2.5524   3.2373   4.1359   4.4261   4.9513

     occupation numbers 
     1.0000   1.0000   1.0000   1.0000   1.0000   1.0000   1.0000   1.0000
     1.0000   1.0000   1.0000   1.0000   1.0000   1.0000   1.0000   1.0000

          k =-0.5000 0.1443 0.2960 (  3678 PWs)   bands (ev):

   -66.3247 -66.3234 -33.3456 -33.3389 -33.3102 -33.2986 -33.2912 -33.2845
   -10.2684 -10.1082   1.8008   2.1494   3.4277   4.0915   4.5787   5.0500

     occupation numbers 
     1.0000   1.0000   1.0000   1.0000   1.0000   1.0000   1.0000   1.0000
     1.0000   1.0000   1.0000   1.0000   1.0000   1.0000   1.0000   1.0000

          k =-0.5000 0.1443-0.3947 (  3670 PWs)   bands (ev):

   -66.3241 -66.3240 -33.3445 -33.3445 -33.3044 -33.3044 -33.2858 -33.2858
   -10.1813 -10.1810   1.8857   1.8858   3.7367   3.7370   4.9091   4.9092

     occupation numbers 
     1.0000   1.0000   1.0000   1.0000   1.0000   1.0000   1.0000   1.0000
     1.0000   1.0000   1.0000   1.0000   1.0000   1.0000   1.0000   1.0000

          k =-0.5000 0.1443-0.2960 (  3678 PWs)   bands (ev):

   -66.3247 -66.3234 -33.3456 -33.3389 -33.3102 -33.2986 -33.2912 -33.2845
   -10.2684 -10.1082   1.8008   2.1494   3.4277   4.0915   4.5787   5.0500

     occupation numbers 
     1.0000   1.0000   1.0000   1.0000   1.0000   1.0000   1.0000   1.0000
     1.0000   1.0000   1.0000   1.0000   1.0000   1.0000   1.0000   1.0000

          k =-0.5000 0.1443-0.1973 (  3678 PWs)   bands (ev):

   -66.3252 -66.3229 -33.3421 -33.3298 -33.3152 -33.3000 -33.2937 -33.2875
   -10.3526 -10.0583   1.8733   2.5524   3.2373   4.1359   4.4261   4.9513

     occupation numbers 
     1.0000   1.0000   1.0000   1.0000   1.0000   1.0000   1.0000   1.0000
     1.0000   1.0000   1.0000   1.0000   1.0000   1.0000   1.0000   1.0000

          k =-0.5000 0.1443-0.0987 (  3683 PWs)   bands (ev):

   -66.3256 -66.3225 -33.3348 -33.3203 -33.3172 -33.3105 -33.2946 -33.2902
   -10.4137 -10.0314   2.0144   2.9438   3.3053   3.6715   4.5872   4.7259

     occupation numbers 
     1.0000   1.0000   1.0000   1.0000   1.0000   1.0000   1.0000   1.0000
     1.0000   1.0000   1.0000   1.0000   1.0000   1.0000   1.0000   1.0000

          k =-0.5000-0.8660-0.0000 (  3662 PWs)   bands (ev):

   -66.3257 -66.3224 -33.3285 -33.3217 -33.3172 -33.3108 -33.3010 -33.2880
   -10.4295 -10.0293   1.9950   3.2693   3.3879   3.4152   4.3441   4.9248

     occupation numbers 
     1.0000   1.0000   1.0000   1.0000   1.0000   1.0000   1.0000   1.0000
     1.0000   1.0000   1.0000   1.0000   1.0000   1.0000   1.0000   1.0000

          k =-0.5000-0.8660 0.0987 (  3674 PWs)   bands (ev):

   -66.3256 -66.3225 -33.3361 -33.3188 -33.3161 -33.3128 -33.2946 -33.2891
   -10.4076 -10.0370   1.8890   3.0802   3.4362   3.4555   4.5997   4.8526

     occupation numbers 
     1.0000   1.0000   1.0000   1.0000   1.0000   1.0000   1.0000   1.0000
     1.0000   1.0000   1.0000   1.0000   1.0000   1.0000   1.0000   1.0000

          k =-0.5000-0.8660 0.1973 (  3666 PWs)   bands (ev):

   -66.3252 -66.3229 -33.3434 -33.3300 -33.3129 -33.3017 -33.2923 -33.2879
   -10.3477 -10.0623   1.7210   2.5380   3.5770   3.8653   4.6549   4.8920

     occupation numbers 
     1.0000   1.0000   1.0000   1.0000   1.0000   1.0000   1.0000   1.0000
     1.0000   1.0000   1.0000   1.0000   1.0000   1.0000   1.0000   1.0000

          k =-0.5000-0.8660 0.2960 (  3670 PWs)   bands (ev):

   -66.3247 -66.3234 -33.3467 -33.3394 -33.3082 -33.2970 -33.2926 -33.2851
   -10.2653 -10.1099   1.6578   2.0729   3.7981   4.3241   4.3781   4.9370

     occupation numbers 
     1.0000   1.0000   1.0000   1.0000   1.0000   1.0000   1.0000   1.0000
     1.0000   1.0000   1.0000   1.0000   1.0000   1.0000   1.0000   1.0000

          k =-0.5000-0.8660-0.3947 (  3656 PWs)   bands (ev):

   -66.3241 -66.3240 -33.3453 -33.3453 -33.3026 -33.3026 -33.2867 -33.2867
   -10.1805 -10.1802   1.7700   1.7701   4.0766   4.0769   4.7181   4.7182

     occupation numbers 
     1.0000   1.0000   1.0000   1.0000   1.0000   1.0000   1.0000   1.0000
     1.0000   1.0000   1.0000   1.0000   1.0000   1.0000   1.0000   1.0000

     highest occupied level (ev):     5.5757

!    total energy              =    -315.18588542 Ry
     Harris-Foulkes estimate   =    -315.18588528 Ry
     estimated scf accuracy    <       0.00000012 Ry

     The total energy is the sum of the following terms:

     one-electron contribution =    -208.02080554 Ry
     hartree contribution      =     110.83923601 Ry
     xc contribution           =     -48.08988692 Ry
     ewald contribution        =    -169.91442897 Ry

     convergence has been achieved in   7 iterations

     Forces acting on atoms (cartesian axes, Ry/au):

     atom    1 type  2   force =     0.00000012   -0.00000037   -0.01775029
     atom    2 type  2   force =    -0.00000020    0.00000107   -0.01774976
     atom    3 type  1   force =     0.00000126   -0.00000044    0.01775547
     atom    4 type  1   force =    -0.00000118   -0.00000026    0.01774458
     The non-local contrib.  to forces
     atom    1 type  2   force =    -0.00000033   -0.00000216    0.04624699
     atom    2 type  2   force =    -0.00000038    0.00000315    0.04624304
     atom    3 type  1   force =     0.00000020   -0.00000284    0.15596351
     atom    4 type  1   force =     0.00000016   -0.00000035    0.15596314
     The ionic contribution  to forces
     atom    1 type  2   force =    -0.00000542    0.00001971   -1.02998465
     atom    2 type  2   force =    -0.00000054    0.00000152   -1.02998595
     atom    3 type  1   force =     0.00000100   -0.00001619    1.02998610
     atom    4 type  1   force =     0.00000496   -0.00000505    1.02998450
     The local contribution  to forces
     atom    1 type  2   force =     0.00000593   -0.00001656    0.96595715
     atom    2 type  2   force =     0.00000164   -0.00000425    0.96596507
     atom    3 type  1   force =    -0.00000129    0.00001890   -1.16832749
     atom    4 type  1   force =    -0.00000520    0.00000448   -1.16830189
     The core correction contribution to forces
     atom    1 type  2   force =     0.00000001    0.00000001    0.00017317
     atom    2 type  2   force =     0.00000001   -0.00000003    0.00017323
     atom    3 type  1   force =     0.00000000    0.00000000    0.00000000
     atom    4 type  1   force =     0.00000000    0.00000000    0.00000000
     The Hubbard contrib.    to forces
     atom    1 type  2   force =     0.00000000    0.00000000    0.00000000
     atom    2 type  2   force =     0.00000000    0.00000000    0.00000000
     atom    3 type  1   force =     0.00000000    0.00000000    0.00000000
     atom    4 type  1   force =     0.00000000    0.00000000    0.00000000
     The SCF correction term to forces
     atom    1 type  2   force =     0.00000000    0.00000000    0.00000000
     atom    2 type  2   force =     0.00000000    0.00000000    0.00000000
     atom    3 type  1   force =     0.00000000    0.00000000    0.00000000
     atom    4 type  1   force =     0.00000000    0.00000000    0.00000000

     Total force =     0.000000     Total SCF correction =     0.000000


     Computing stress (Cartesian axis) and pressure

          total   stress  (Ry/bohr**3)                   (kbar)     P=   -1.48
  -0.00000900   0.00000000   0.00000001         -1.32      0.00      0.00
   0.00000000  -0.00000900  -0.00000000          0.00     -1.32     -0.00
   0.00000001  -0.00000000  -0.00001213          0.00     -0.00     -1.78

     kinetic stress (kbar)  20002.54     -0.00      0.00
                               -0.00  20002.54     -0.00
                                0.00     -0.00  20045.04

     local   stress (kbar)  -4514.66     -0.02      0.02
                               -0.02  -4514.71     -0.02
                                0.02     -0.02 -16732.52

     nonloc. stress (kbar)   5475.90      0.00     -0.00
                                0.00   5475.90      0.00
                               -0.00      0.00   5455.17

     hartree stress (kbar)  16081.83      0.01     -0.01
                                0.01  16081.84      0.01
                               -0.01      0.01  21473.65

     exc-cor stress (kbar)  -7109.08      0.00     -0.00
                                0.00  -7109.08      0.00
                               -0.00      0.00  -7108.22

     corecor stress (kbar)   -261.82     -0.00     -0.00
                               -0.00   -261.82     -0.00
                               -0.00     -0.00   -261.95

     ewald   stress (kbar) -29676.03      0.01     -0.01
                                0.01 -29676.00      0.01
                               -0.01      0.01 -22872.97

     hubbard stress (kbar)      0.00      0.00      0.00
                                0.00      0.00      0.00
                                0.00      0.00      0.00

     london  stress (kbar)      0.00      0.00      0.00
                                0.00      0.00      0.00
                                0.00      0.00      0.00

     DFT-D3  stress (kbar)      0.00      0.00      0.00
                                0.00      0.00      0.00
                                0.00      0.00      0.00

     XDM     stress (kbar)      0.00      0.00      0.00
                                0.00      0.00      0.00
                                0.00      0.00      0.00

     dft-nl  stress (kbar)      0.00      0.00      0.00
                                0.00      0.00      0.00
                                0.00      0.00      0.00

     TS-vdW  stress (kbar)      0.00      0.00      0.00
                                0.00      0.00      0.00
                                0.00      0.00      0.00



     Writing output data file ZnO.save/
 
     init_run     :      0.39s CPU      1.07s WALL (       1 calls)
     electrons    :      4.18s CPU      4.57s WALL (       1 calls)
     forces       :      0.13s CPU      0.14s WALL (       1 calls)
     stress       :      0.23s CPU      0.25s WALL (       1 calls)

     Called by init_run:
     wfcinit      :      0.26s CPU      0.79s WALL (       1 calls)
     wfcinit:atom :      0.00s CPU      0.00s WALL (      65 calls)
     wfcinit:wfcr :      0.25s CPU      0.77s WALL (      65 calls)
     potinit      :      0.05s CPU      0.07s WALL (       1 calls)
     hinit0       :      0.06s CPU      0.15s WALL (       1 calls)

     Called by electrons:
     c_bands      :      3.41s CPU      3.72s WALL (       7 calls)
     sum_band     :      0.49s CPU      0.53s WALL (       7 calls)
     v_of_rho     :      0.25s CPU      0.26s WALL (       8 calls)
     v_h          :      0.00s CPU      0.00s WALL (       8 calls)
     v_xc         :      0.30s CPU      0.32s WALL (      10 calls)
     newd         :      0.03s CPU      0.05s WALL (       8 calls)
     mix_rho      :      0.01s CPU      0.02s WALL (       7 calls)

     Called by c_bands:
     init_us_2    :      0.07s CPU      0.08s WALL (    1105 calls)
     cegterg      :      3.07s CPU      3.26s WALL (     455 calls)

     Called by sum_band:
     sum_band:bec :      0.00s CPU      0.01s WALL (     455 calls)
     addusdens    :      0.03s CPU      0.04s WALL (       7 calls)

     Called by *egterg:
     h_psi        :      1.89s CPU      1.96s WALL (    1489 calls)
     s_psi        :      0.07s CPU      0.07s WALL (    1489 calls)
     g_psi        :      0.00s CPU      0.00s WALL (     969 calls)
     cdiaghg      :      0.83s CPU      1.40s WALL (    1424 calls)
     cegterg:over :      0.25s CPU      0.29s WALL (     969 calls)
     cegterg:upda :      0.11s CPU      0.11s WALL (     969 calls)
     cegterg:last :      0.06s CPU      0.06s WALL (     455 calls)
     cdiaghg:chol :      0.11s CPU      0.57s WALL (    1424 calls)
     cdiaghg:inve :      0.02s CPU      0.02s WALL (    1424 calls)
     cdiaghg:para :      0.08s CPU      0.09s WALL (    2848 calls)

     Called by h_psi:
     h_psi:pot    :      1.88s CPU      1.96s WALL (    1489 calls)
     h_psi:calbec :      0.14s CPU      0.15s WALL (    1489 calls)
     vloc_psi     :      1.67s CPU      1.73s WALL (    1489 calls)
     add_vuspsi   :      0.08s CPU      0.08s WALL (    1489 calls)

     General routines
     calbec       :      0.22s CPU      0.23s WALL (    2269 calls)
     fft          :      0.04s CPU      0.08s WALL (     127 calls)
     ffts         :      0.00s CPU      0.00s WALL (      15 calls)
     fftw         :      1.91s CPU      1.98s WALL (   44848 calls)
     interpolate  :      0.00s CPU      0.01s WALL (       8 calls)
 
     Parallel routines
     fft_scatt_xy :      0.27s CPU      0.28s WALL (   44990 calls)
     fft_scatt_yz :      1.07s CPU      1.11s WALL (   44990 calls)
 
     PWSCF        :      5.17s CPU      7.53s WALL

 
   This run was terminated on:  16:19:48  16Jun2022            

=------------------------------------------------------------------------------=
   JOB DONE.
=------------------------------------------------------------------------------=
