
     Program PWSCF v.6.4.1 starts on 16Jun2022 at 16:18:46 

     This program is part of the open-source Quantum ESPRESSO suite
     for quantum simulation of materials; please cite
         "P. Giannozzi et al., J. Phys.:Condens. Matter 21 395502 (2009);
         "P. Giannozzi et al., J. Phys.:Condens. Matter 29 465901 (2017);
          URL http://www.quantum-espresso.org", 
     in publications or presentations arising from this work. More details at
     http://www.quantum-espresso.org/quote

     Parallel version (MPI), running on    64 processors

     MPI processes distributed on     1 nodes
     K-points division:     npool     =       4
     R & G space division:  proc/nbgrp/npool/nimage =      16
     Waiting for input...
     Reading input from standard input
Warning: card &IONS ignored
Warning: card   UPSCALE           = 100.D0, ignored
Warning: card / ignored
Warning: card &CELL ignored
Warning: card   CELL_DYNAMICS     = 'BFGS' ignored
Warning: card   PRESS_CONV_THR    = 0.5D0 ignored
Warning: card   CELL_DOFREE = 'ALL' ignored
Warning: card / ignored

     Current dimensions of program PWSCF are:
     Max number of different atomic species (ntypx) = 10
     Max number of k-points (npk) =  40000
     Max angular momentum in pseudopotentials (lmaxx) =  3

     Subspace diagonalization in iterative solution of the eigenvalue problem:
     one sub-group per band group will be used
     scalapack distributed-memory algorithm (size of sub-group:  2*  2 procs)

 
     Parallelization info
     --------------------
     sticks:   dense  smooth     PW     G-vecs:    dense   smooth      PW
     Min         102      53     16                 4926     1909     331
     Max         103      54     17                 4933     1916     335
     Sum        1639     859    271                78871    30599    5327
 


     bravais-lattice index     =            0
     lattice parameter (alat)  =       6.2947  a.u.
     unit-cell volume          =     317.6114 (a.u.)^3
     number of atoms/cell      =            4
     number of atomic types    =            2
     number of electrons       =        32.00
     number of Kohn-Sham states=           16
     kinetic-energy cutoff     =      80.0000  Ry
     charge density cutoff     =     600.0000  Ry
     convergence threshold     =      1.0E-06
     mixing beta               =       0.5000
     number of iterations used =            8  plain     mixing
     Exchange-correlation      = SLA  PW   PSX  PSC ( 1  4 10  8 0 0)
     Using LIBXC version       =    4   3   4

     celldm(1)=   6.294673  celldm(2)=   0.000000  celldm(3)=   0.000000
     celldm(4)=   0.000000  celldm(5)=   0.000000  celldm(6)=   0.000000

     crystal axes: (cart. coord. in units of alat)
               a(1) = (   1.000000   0.000000   0.000000 )  
               a(2) = (  -0.500000   0.866025   0.000000 )  
               a(3) = (   0.000000   0.000000   1.470435 )  

     reciprocal axes: (cart. coord. in units 2 pi/alat)
               b(1) = (  1.000000  0.577350 -0.000000 )  
               b(2) = ( -0.000000  1.154701 -0.000000 )  
               b(3) = ( -0.000000 -0.000000  0.680071 )  


     PseudoPot. # 1 for Mg read from file:
     ./GBRV_PBEsol/mg_pbesol_v1.4.uspp.F.UPF
     MD5 check sum: 4059f37963cf5867752dbf5ab2400678
     Pseudo is Ultrasoft, Zval = 10.0
     Generated by new atomic code, or converted to UPF format
     Using radial grid of  821 points,  7 beta functions with: 
                l(1) =   0
                l(2) =   0
                l(3) =   0
                l(4) =   1
                l(5) =   1
                l(6) =   2
                l(7) =   2
     Q(r) pseudized with  8 coefficients,  rinner =    1.200   1.200   1.200
                                                       1.200   1.200

     PseudoPot. # 2 for O  read from file:
     ./GBRV_PBEsol/o_pbesol_v1.2.uspp.F.UPF
     MD5 check sum: 501638753501ef6325af9037351f7734
     Pseudo is Ultrasoft + core correction, Zval =  6.0
     Generated by new atomic code, or converted to UPF format
     Using radial grid of  737 points,  5 beta functions with: 
                l(1) =   0
                l(2) =   0
                l(3) =   1
                l(4) =   1
                l(5) =   2
     Q(r) pseudized with  8 coefficients,  rinner =    0.900   0.900   0.900
                                                       0.900   0.900

     atomic species   valence    mass     pseudopotential
        Mg            10.00    24.30500     Mg( 1.00)
        O              6.00    15.99900     O ( 1.00)

     No symmetry found


                                    s                        frac. trans.

      isym =  1     identity                                     

 cryst.   s( 1) = (     1          0          0      )
                  (     0          1          0      )
                  (     0          0          1      )

 cart.    s( 1) = (  1.0000000  0.0000000  0.0000000 )
                  ( -0.0000000  1.0000000  0.0000000 )
                  ( -0.0000000  0.0000000  1.0000000 )


   Cartesian axes

     site n.     atom                  positions (alat units)
         1           O   tau(   1) = (   0.5000002   0.2886755   0.0108017  )
         2           O   tau(   2) = (   0.0000001   0.5773495   0.7460193  )
         3           Mg  tau(   3) = (   0.5000000   0.2886749   0.6122217  )
         4           Mg  tau(   4) = (  -0.0000002   0.5773514   1.3474393  )

   Crystallographic axes

     site n.     atom                  positions (cryst. coord.)
         1           O   tau(   1) = (  0.6666670  0.3333337  0.0073459  )
         2           O   tau(   2) = (  0.3333329  0.6666657  0.5073458  )
         3           Mg  tau(   3) = (  0.6666664  0.3333329  0.4163540  )
         4           Mg  tau(   4) = (  0.3333336  0.6666677  0.9163539  )

     number of k points=   260
                       cart. coord. in units 2pi/alat
        k(    1) = (   0.0000000   0.0000000   0.0000000), wk =   0.0039062
        k(    2) = (  -0.0000000  -0.0000000   0.0850088), wk =   0.0078125
        k(    3) = (  -0.0000000  -0.0000000   0.1700177), wk =   0.0078125
        k(    4) = (  -0.0000000  -0.0000001   0.2550265), wk =   0.0078125
        k(    5) = (   0.0000000   0.0000001  -0.3400354), wk =   0.0039062
        k(    6) = (  -0.0000000   0.1443376  -0.0000000), wk =   0.0078125
        k(    7) = (  -0.0000000   0.1443375   0.0850088), wk =   0.0078125
        k(    8) = (  -0.0000000   0.1443375   0.1700177), wk =   0.0078125
        k(    9) = (  -0.0000000   0.1443375   0.2550265), wk =   0.0078125
        k(   10) = (   0.0000000   0.1443376  -0.3400354), wk =   0.0078125
        k(   11) = (  -0.0000000   0.1443376  -0.2550265), wk =   0.0078125
        k(   12) = (  -0.0000000   0.1443376  -0.1700177), wk =   0.0078125
        k(   13) = (  -0.0000000   0.1443376  -0.0850089), wk =   0.0078125
        k(   14) = (  -0.0000000   0.2886751  -0.0000000), wk =   0.0078125
        k(   15) = (  -0.0000000   0.2886751   0.0850088), wk =   0.0078125
        k(   16) = (  -0.0000000   0.2886751   0.1700176), wk =   0.0078125
        k(   17) = (  -0.0000000   0.2886751   0.2550265), wk =   0.0078125
        k(   18) = (  -0.0000000   0.2886752  -0.3400354), wk =   0.0078125
        k(   19) = (  -0.0000000   0.2886752  -0.2550266), wk =   0.0078125
        k(   20) = (  -0.0000000   0.2886752  -0.1700177), wk =   0.0078125
        k(   21) = (  -0.0000000   0.2886751  -0.0850089), wk =   0.0078125
        k(   22) = (  -0.0000000   0.4330127  -0.0000001), wk =   0.0078125
        k(   23) = (  -0.0000000   0.4330127   0.0850088), wk =   0.0078125
        k(   24) = (  -0.0000000   0.4330127   0.1700176), wk =   0.0078125
        k(   25) = (  -0.0000000   0.4330126   0.2550265), wk =   0.0078125
        k(   26) = (  -0.0000000   0.4330128  -0.3400354), wk =   0.0078125
        k(   27) = (  -0.0000000   0.4330128  -0.2550266), wk =   0.0078125
        k(   28) = (  -0.0000000   0.4330127  -0.1700177), wk =   0.0078125
        k(   29) = (  -0.0000000   0.4330127  -0.0850089), wk =   0.0078125
        k(   30) = (   0.0000000  -0.5773503   0.0000001), wk =   0.0039062
        k(   31) = (   0.0000000  -0.5773503   0.0850089), wk =   0.0078125
        k(   32) = (   0.0000000  -0.5773503   0.1700178), wk =   0.0078125
        k(   33) = (   0.0000000  -0.5773503   0.2550266), wk =   0.0078125
        k(   34) = (   0.0000001  -0.5773502  -0.3400353), wk =   0.0039062
        k(   35) = (   0.1250000   0.0721688  -0.0000000), wk =   0.0078125
        k(   36) = (   0.1250000   0.0721688   0.0850088), wk =   0.0078125
        k(   37) = (   0.1250000   0.0721687   0.1700177), wk =   0.0078125
        k(   38) = (   0.1250000   0.0721687   0.2550265), wk =   0.0078125
        k(   39) = (   0.1250000   0.0721689  -0.3400354), wk =   0.0078125
        k(   40) = (   0.1250000   0.0721688  -0.2550265), wk =   0.0078125
        k(   41) = (   0.1250000   0.0721688  -0.1700177), wk =   0.0078125
        k(   42) = (   0.1250000   0.0721688  -0.0850088), wk =   0.0078125
        k(   43) = (   0.1250000   0.2165063  -0.0000000), wk =   0.0078125
        k(   44) = (   0.1250000   0.2165063   0.0850088), wk =   0.0078125
        k(   45) = (   0.1250000   0.2165063   0.1700176), wk =   0.0078125
        k(   46) = (   0.1250000   0.2165063   0.2550265), wk =   0.0078125
        k(   47) = (   0.1250000   0.2165064  -0.3400354), wk =   0.0078125
        k(   48) = (   0.1250000   0.2165064  -0.2550265), wk =   0.0078125
        k(   49) = (   0.1250000   0.2165064  -0.1700177), wk =   0.0078125
        k(   50) = (   0.1250000   0.2165064  -0.0850089), wk =   0.0078125
        k(   51) = (   0.1250000   0.3608439  -0.0000001), wk =   0.0078125
        k(   52) = (   0.1250000   0.3608439   0.0850088), wk =   0.0078125
        k(   53) = (   0.1250000   0.3608439   0.1700176), wk =   0.0078125
        k(   54) = (   0.1250000   0.3608438   0.2550265), wk =   0.0078125
        k(   55) = (   0.1250000   0.3608440  -0.3400354), wk =   0.0078125
        k(   56) = (   0.1250000   0.3608440  -0.2550266), wk =   0.0078125
        k(   57) = (   0.1250000   0.3608439  -0.1700177), wk =   0.0078125
        k(   58) = (   0.1250000   0.3608439  -0.0850089), wk =   0.0078125
        k(   59) = (   0.1250000   0.5051815  -0.0000001), wk =   0.0078125
        k(   60) = (   0.1250000   0.5051814   0.0850088), wk =   0.0078125
        k(   61) = (   0.1250000   0.5051814   0.1700176), wk =   0.0078125
        k(   62) = (   0.1250000   0.5051814   0.2550264), wk =   0.0078125
        k(   63) = (   0.1250000   0.5051815  -0.3400354), wk =   0.0078125
        k(   64) = (   0.1250000   0.5051815  -0.2550266), wk =   0.0078125
        k(   65) = (   0.1250000   0.5051815  -0.1700178), wk =   0.0078125
        k(   66) = (   0.1250000   0.5051815  -0.0850089), wk =   0.0078125
        k(   67) = (   0.1250000  -0.5051815   0.0000001), wk =   0.0078125
        k(   68) = (   0.1250000  -0.5051815   0.0850089), wk =   0.0078125
        k(   69) = (   0.1250000  -0.5051815   0.1700178), wk =   0.0078125
        k(   70) = (   0.1250000  -0.5051815   0.2550266), wk =   0.0078125
        k(   71) = (   0.1250000  -0.5051814  -0.3400353), wk =   0.0078125
        k(   72) = (   0.1250000  -0.5051814  -0.2550264), wk =   0.0078125
        k(   73) = (   0.1250000  -0.5051814  -0.1700176), wk =   0.0078125
        k(   74) = (   0.1250000  -0.5051815  -0.0850088), wk =   0.0078125
        k(   75) = (   0.1250000  -0.3608439   0.0000001), wk =   0.0078125
        k(   76) = (   0.1250000  -0.3608439   0.0850089), wk =   0.0078125
        k(   77) = (   0.1250000  -0.3608440   0.1700177), wk =   0.0078125
        k(   78) = (   0.1250000  -0.3608440   0.2550266), wk =   0.0078125
        k(   79) = (   0.1250000  -0.3608438  -0.3400353), wk =   0.0078125
        k(   80) = (   0.1250000  -0.3608439  -0.2550265), wk =   0.0078125
        k(   81) = (   0.1250000  -0.3608439  -0.1700176), wk =   0.0078125
        k(   82) = (   0.1250000  -0.3608439  -0.0850088), wk =   0.0078125
        k(   83) = (   0.1250000  -0.2165064   0.0000000), wk =   0.0078125
        k(   84) = (   0.1250000  -0.2165064   0.0850089), wk =   0.0078125
        k(   85) = (   0.1250000  -0.2165064   0.1700177), wk =   0.0078125
        k(   86) = (   0.1250000  -0.2165064   0.2550265), wk =   0.0078125
        k(   87) = (   0.1250000  -0.2165063  -0.3400353), wk =   0.0078125
        k(   88) = (   0.1250000  -0.2165063  -0.2550265), wk =   0.0078125
        k(   89) = (   0.1250000  -0.2165063  -0.1700176), wk =   0.0078125
        k(   90) = (   0.1250000  -0.2165063  -0.0850088), wk =   0.0078125
        k(   91) = (   0.1250000  -0.0721688   0.0000000), wk =   0.0078125
        k(   92) = (   0.1250000  -0.0721688   0.0850088), wk =   0.0078125
        k(   93) = (   0.1250000  -0.0721688   0.1700177), wk =   0.0078125
        k(   94) = (   0.1250000  -0.0721689   0.2550265), wk =   0.0078125
        k(   95) = (   0.1250000  -0.0721687  -0.3400353), wk =   0.0078125
        k(   96) = (   0.1250000  -0.0721687  -0.2550265), wk =   0.0078125
        k(   97) = (   0.1250000  -0.0721688  -0.1700177), wk =   0.0078125
        k(   98) = (   0.1250000  -0.0721688  -0.0850088), wk =   0.0078125
        k(   99) = (   0.2500000   0.1443375  -0.0000000), wk =   0.0078125
        k(  100) = (   0.2500000   0.1443375   0.0850088), wk =   0.0078125
        k(  101) = (   0.2500000   0.1443375   0.1700177), wk =   0.0078125
        k(  102) = (   0.2500000   0.1443375   0.2550265), wk =   0.0078125
        k(  103) = (   0.2500000   0.1443376  -0.3400354), wk =   0.0078125
        k(  104) = (   0.2500000   0.1443376  -0.2550265), wk =   0.0078125
        k(  105) = (   0.2500000   0.1443376  -0.1700177), wk =   0.0078125
        k(  106) = (   0.2500000   0.1443376  -0.0850089), wk =   0.0078125
        k(  107) = (   0.2500000   0.2886751  -0.0000000), wk =   0.0078125
        k(  108) = (   0.2500000   0.2886751   0.0850088), wk =   0.0078125
        k(  109) = (   0.2500000   0.2886751   0.1700176), wk =   0.0078125
        k(  110) = (   0.2500000   0.2886751   0.2550265), wk =   0.0078125
        k(  111) = (   0.2500000   0.2886752  -0.3400354), wk =   0.0078125
        k(  112) = (   0.2500000   0.2886752  -0.2550266), wk =   0.0078125
        k(  113) = (   0.2500000   0.2886751  -0.1700177), wk =   0.0078125
        k(  114) = (   0.2500000   0.2886751  -0.0850089), wk =   0.0078125
        k(  115) = (   0.2500000   0.4330127  -0.0000001), wk =   0.0078125
        k(  116) = (   0.2500000   0.4330127   0.0850088), wk =   0.0078125
        k(  117) = (   0.2500000   0.4330126   0.1700176), wk =   0.0078125
        k(  118) = (   0.2500000   0.4330126   0.2550265), wk =   0.0078125
        k(  119) = (   0.2500000   0.4330128  -0.3400354), wk =   0.0078125
        k(  120) = (   0.2500000   0.4330127  -0.2550266), wk =   0.0078125
        k(  121) = (   0.2500000   0.4330127  -0.1700177), wk =   0.0078125
        k(  122) = (   0.2500000   0.4330127  -0.0850089), wk =   0.0078125
        k(  123) = (   0.2500000   0.5773502  -0.0000001), wk =   0.0078125
        k(  124) = (   0.2500000   0.5773502   0.0850088), wk =   0.0078125
        k(  125) = (   0.2500000   0.5773502   0.1700176), wk =   0.0078125
        k(  126) = (   0.2499999   0.5773502   0.2550264), wk =   0.0078125
        k(  127) = (   0.2500000   0.5773503  -0.3400354), wk =   0.0078125
        k(  128) = (   0.2500000   0.5773503  -0.2550266), wk =   0.0078125
        k(  129) = (   0.2500000   0.5773503  -0.1700178), wk =   0.0078125
        k(  130) = (   0.2500000   0.5773503  -0.0850089), wk =   0.0078125
        k(  131) = (   0.2500000  -0.4330127   0.0000001), wk =   0.0078125
        k(  132) = (   0.2500000  -0.4330127   0.0850089), wk =   0.0078125
        k(  133) = (   0.2500000  -0.4330128   0.1700177), wk =   0.0078125
        k(  134) = (   0.2500000  -0.4330128   0.2550266), wk =   0.0078125
        k(  135) = (   0.2500000  -0.4330126  -0.3400353), wk =   0.0078125
        k(  136) = (   0.2500000  -0.4330127  -0.2550265), wk =   0.0078125
        k(  137) = (   0.2500000  -0.4330127  -0.1700176), wk =   0.0078125
        k(  138) = (   0.2500000  -0.4330127  -0.0850088), wk =   0.0078125
        k(  139) = (   0.2500000  -0.2886751   0.0000000), wk =   0.0078125
        k(  140) = (   0.2500000  -0.2886752   0.0850089), wk =   0.0078125
        k(  141) = (   0.2500000  -0.2886752   0.1700177), wk =   0.0078125
        k(  142) = (   0.2500000  -0.2886752   0.2550266), wk =   0.0078125
        k(  143) = (   0.2500000  -0.2886751  -0.3400353), wk =   0.0078125
        k(  144) = (   0.2500000  -0.2886751  -0.2550265), wk =   0.0078125
        k(  145) = (   0.2500000  -0.2886751  -0.1700176), wk =   0.0078125
        k(  146) = (   0.2500000  -0.2886751  -0.0850088), wk =   0.0078125
        k(  147) = (   0.2500000  -0.1443376   0.0000000), wk =   0.0078125
        k(  148) = (   0.2500000  -0.1443376   0.0850089), wk =   0.0078125
        k(  149) = (   0.2500000  -0.1443376   0.1700177), wk =   0.0078125
        k(  150) = (   0.2500000  -0.1443376   0.2550265), wk =   0.0078125
        k(  151) = (   0.2500000  -0.1443375  -0.3400353), wk =   0.0078125
        k(  152) = (   0.2500000  -0.1443375  -0.2550265), wk =   0.0078125
        k(  153) = (   0.2500000  -0.1443375  -0.1700177), wk =   0.0078125
        k(  154) = (   0.2500000  -0.1443376  -0.0850088), wk =   0.0078125
        k(  155) = (   0.2500000  -0.0000000   0.0000000), wk =   0.0078125
        k(  156) = (   0.2500000  -0.0000000   0.0850088), wk =   0.0078125
        k(  157) = (   0.2500000  -0.0000001   0.1700177), wk =   0.0078125
        k(  158) = (   0.2500000  -0.0000001   0.2550265), wk =   0.0078125
        k(  159) = (   0.2500000   0.0000001  -0.3400354), wk =   0.0078125
        k(  160) = (   0.2500000   0.0000000  -0.2550265), wk =   0.0078125
        k(  161) = (   0.2500000   0.0000000  -0.1700177), wk =   0.0078125
        k(  162) = (   0.2500000   0.0000000  -0.0850088), wk =   0.0078125
        k(  163) = (   0.3750000   0.2165063  -0.0000000), wk =   0.0078125
        k(  164) = (   0.3750000   0.2165063   0.0850088), wk =   0.0078125
        k(  165) = (   0.3750000   0.2165063   0.1700176), wk =   0.0078125
        k(  166) = (   0.3750000   0.2165063   0.2550265), wk =   0.0078125
        k(  167) = (   0.3750000   0.2165064  -0.3400354), wk =   0.0078125
        k(  168) = (   0.3750000   0.2165064  -0.2550265), wk =   0.0078125
        k(  169) = (   0.3750000   0.2165064  -0.1700177), wk =   0.0078125
        k(  170) = (   0.3750000   0.2165063  -0.0850089), wk =   0.0078125
        k(  171) = (   0.3750000   0.3608439  -0.0000001), wk =   0.0078125
        k(  172) = (   0.3750000   0.3608439   0.0850088), wk =   0.0078125
        k(  173) = (   0.3750000   0.3608438   0.1700176), wk =   0.0078125
        k(  174) = (   0.3750000   0.3608438   0.2550265), wk =   0.0078125
        k(  175) = (   0.3750000   0.3608440  -0.3400354), wk =   0.0078125
        k(  176) = (   0.3750000   0.3608439  -0.2550266), wk =   0.0078125
        k(  177) = (   0.3750000   0.3608439  -0.1700177), wk =   0.0078125
        k(  178) = (   0.3750000   0.3608439  -0.0850089), wk =   0.0078125
        k(  179) = (   0.3750000   0.5051814  -0.0000001), wk =   0.0078125
        k(  180) = (   0.3750000   0.5051814   0.0850088), wk =   0.0078125
        k(  181) = (   0.3750000   0.5051814   0.1700176), wk =   0.0078125
        k(  182) = (   0.3750000   0.5051814   0.2550264), wk =   0.0078125
        k(  183) = (   0.3750000   0.5051815  -0.3400354), wk =   0.0078125
        k(  184) = (   0.3750000   0.5051815  -0.2550266), wk =   0.0078125
        k(  185) = (   0.3750000   0.5051815  -0.1700178), wk =   0.0078125
        k(  186) = (   0.3750000   0.5051815  -0.0850089), wk =   0.0078125
        k(  187) = (   0.3750000   0.6495190  -0.0000001), wk =   0.0078125
        k(  188) = (   0.3749999   0.6495190   0.0850087), wk =   0.0078125
        k(  189) = (   0.3749999   0.6495190   0.1700176), wk =   0.0078125
        k(  190) = (   0.3749999   0.6495190   0.2550264), wk =   0.0078125
        k(  191) = (   0.3750000   0.6495191  -0.3400355), wk =   0.0078125
        k(  192) = (   0.3750000   0.6495191  -0.2550266), wk =   0.0078125
        k(  193) = (   0.3750000   0.6495191  -0.1700178), wk =   0.0078125
        k(  194) = (   0.3750000   0.6495190  -0.0850089), wk =   0.0078125
        k(  195) = (   0.3750000  -0.3608439   0.0000001), wk =   0.0078125
        k(  196) = (   0.3750000  -0.3608440   0.0850089), wk =   0.0078125
        k(  197) = (   0.3750000  -0.3608440   0.1700177), wk =   0.0078125
        k(  198) = (   0.3750000  -0.3608440   0.2550266), wk =   0.0078125
        k(  199) = (   0.3750000  -0.3608439  -0.3400353), wk =   0.0078125
        k(  200) = (   0.3750000  -0.3608439  -0.2550265), wk =   0.0078125
        k(  201) = (   0.3750000  -0.3608439  -0.1700176), wk =   0.0078125
        k(  202) = (   0.3750000  -0.3608439  -0.0850088), wk =   0.0078125
        k(  203) = (   0.3750000  -0.2165064   0.0000000), wk =   0.0078125
        k(  204) = (   0.3750000  -0.2165064   0.0850089), wk =   0.0078125
        k(  205) = (   0.3750000  -0.2165064   0.1700177), wk =   0.0078125
        k(  206) = (   0.3750000  -0.2165064   0.2550265), wk =   0.0078125
        k(  207) = (   0.3750000  -0.2165063  -0.3400353), wk =   0.0078125
        k(  208) = (   0.3750000  -0.2165063  -0.2550265), wk =   0.0078125
        k(  209) = (   0.3750000  -0.2165063  -0.1700176), wk =   0.0078125
        k(  210) = (   0.3750000  -0.2165064  -0.0850088), wk =   0.0078125
        k(  211) = (   0.3750000  -0.0721688   0.0000000), wk =   0.0078125
        k(  212) = (   0.3750000  -0.0721688   0.0850088), wk =   0.0078125
        k(  213) = (   0.3750000  -0.0721688   0.1700177), wk =   0.0078125
        k(  214) = (   0.3750000  -0.0721689   0.2550265), wk =   0.0078125
        k(  215) = (   0.3750000  -0.0721687  -0.3400353), wk =   0.0078125
        k(  216) = (   0.3750000  -0.0721688  -0.2550265), wk =   0.0078125
        k(  217) = (   0.3750000  -0.0721688  -0.1700177), wk =   0.0078125
        k(  218) = (   0.3750000  -0.0721688  -0.0850088), wk =   0.0078125
        k(  219) = (   0.3750000   0.0721688  -0.0000000), wk =   0.0078125
        k(  220) = (   0.3750000   0.0721687   0.0850088), wk =   0.0078125
        k(  221) = (   0.3750000   0.0721687   0.1700177), wk =   0.0078125
        k(  222) = (   0.3750000   0.0721687   0.2550265), wk =   0.0078125
        k(  223) = (   0.3750000   0.0721688  -0.3400354), wk =   0.0078125
        k(  224) = (   0.3750000   0.0721688  -0.2550265), wk =   0.0078125
        k(  225) = (   0.3750000   0.0721688  -0.1700177), wk =   0.0078125
        k(  226) = (   0.3750000   0.0721688  -0.0850088), wk =   0.0078125
        k(  227) = (  -0.5000000  -0.2886751   0.0000000), wk =   0.0039062
        k(  228) = (  -0.5000000  -0.2886751   0.0850089), wk =   0.0078125
        k(  229) = (  -0.5000000  -0.2886751   0.1700177), wk =   0.0078125
        k(  230) = (  -0.5000000  -0.2886751   0.2550266), wk =   0.0078125
        k(  231) = (  -0.5000000  -0.2886750  -0.3400353), wk =   0.0039062
        k(  232) = (  -0.5000000  -0.1443375   0.0000000), wk =   0.0078125
        k(  233) = (  -0.5000000  -0.1443375   0.0850089), wk =   0.0078125
        k(  234) = (  -0.5000000  -0.1443376   0.1700177), wk =   0.0078125
        k(  235) = (  -0.5000000  -0.1443376   0.2550265), wk =   0.0078125
        k(  236) = (  -0.5000000  -0.1443374  -0.3400353), wk =   0.0078125
        k(  237) = (  -0.5000000  -0.1443375  -0.2550265), wk =   0.0078125
        k(  238) = (  -0.5000000  -0.1443375  -0.1700177), wk =   0.0078125
        k(  239) = (  -0.5000000  -0.1443375  -0.0850088), wk =   0.0078125
        k(  240) = (  -0.5000000   0.0000000  -0.0000000), wk =   0.0078125
        k(  241) = (  -0.5000000   0.0000000   0.0850088), wk =   0.0078125
        k(  242) = (  -0.5000000  -0.0000000   0.1700177), wk =   0.0078125
        k(  243) = (  -0.5000000  -0.0000000   0.2550265), wk =   0.0078125
        k(  244) = (  -0.5000000   0.0000001  -0.3400354), wk =   0.0078125
        k(  245) = (  -0.5000000   0.0000001  -0.2550265), wk =   0.0078125
        k(  246) = (  -0.5000000   0.0000001  -0.1700177), wk =   0.0078125
        k(  247) = (  -0.5000000   0.0000001  -0.0850088), wk =   0.0078125
        k(  248) = (  -0.5000000   0.1443376  -0.0000000), wk =   0.0078125
        k(  249) = (  -0.5000000   0.1443376   0.0850088), wk =   0.0078125
        k(  250) = (  -0.5000000   0.1443376   0.1700177), wk =   0.0078125
        k(  251) = (  -0.5000000   0.1443375   0.2550265), wk =   0.0078125
        k(  252) = (  -0.5000000   0.1443377  -0.3400354), wk =   0.0078125
        k(  253) = (  -0.5000000   0.1443377  -0.2550265), wk =   0.0078125
        k(  254) = (  -0.5000000   0.1443376  -0.1700177), wk =   0.0078125
        k(  255) = (  -0.5000000   0.1443376  -0.0850089), wk =   0.0078125
        k(  256) = (  -0.4999999  -0.8660253   0.0000001), wk =   0.0039062
        k(  257) = (  -0.4999999  -0.8660254   0.0850090), wk =   0.0078125
        k(  258) = (  -0.4999999  -0.8660254   0.1700178), wk =   0.0078125
        k(  259) = (  -0.4999999  -0.8660254   0.2550266), wk =   0.0078125
        k(  260) = (  -0.4999999  -0.8660253  -0.3400352), wk =   0.0039062

                       cryst. coord.
        k(    1) = (   0.0000000   0.0000000   0.0000000), wk =   0.0039062
        k(    2) = (  -0.0000000   0.0000000   0.1250000), wk =   0.0078125
        k(    3) = (  -0.0000000   0.0000000   0.2500000), wk =   0.0078125
        k(    4) = (  -0.0000000   0.0000000   0.3750000), wk =   0.0078125
        k(    5) = (   0.0000000  -0.0000000  -0.5000000), wk =   0.0039062
        k(    6) = (   0.0000000   0.1250000   0.0000000), wk =   0.0078125
        k(    7) = (   0.0000000   0.1250000   0.1250000), wk =   0.0078125
        k(    8) = (  -0.0000000   0.1250000   0.2500000), wk =   0.0078125
        k(    9) = (  -0.0000000   0.1250000   0.3750000), wk =   0.0078125
        k(   10) = (   0.0000000   0.1250000  -0.5000000), wk =   0.0078125
        k(   11) = (   0.0000000   0.1250000  -0.3750000), wk =   0.0078125
        k(   12) = (   0.0000000   0.1250000  -0.2500000), wk =   0.0078125
        k(   13) = (   0.0000000   0.1250000  -0.1250000), wk =   0.0078125
        k(   14) = (   0.0000000   0.2500000   0.0000000), wk =   0.0078125
        k(   15) = (   0.0000000   0.2500000   0.1250000), wk =   0.0078125
        k(   16) = (   0.0000000   0.2500000   0.2500000), wk =   0.0078125
        k(   17) = (   0.0000000   0.2500000   0.3750000), wk =   0.0078125
        k(   18) = (   0.0000000   0.2500000  -0.5000000), wk =   0.0078125
        k(   19) = (   0.0000000   0.2500000  -0.3750000), wk =   0.0078125
        k(   20) = (   0.0000000   0.2500000  -0.2500000), wk =   0.0078125
        k(   21) = (  -0.0000000   0.2500000  -0.1250000), wk =   0.0078125
        k(   22) = (   0.0000000   0.3750000   0.0000000), wk =   0.0078125
        k(   23) = (   0.0000000   0.3750000   0.1250000), wk =   0.0078125
        k(   24) = (   0.0000000   0.3750000   0.2500000), wk =   0.0078125
        k(   25) = (   0.0000000   0.3750000   0.3750000), wk =   0.0078125
        k(   26) = (   0.0000000   0.3750000  -0.5000000), wk =   0.0078125
        k(   27) = (   0.0000000   0.3750000  -0.3750000), wk =   0.0078125
        k(   28) = (   0.0000000   0.3750000  -0.2500000), wk =   0.0078125
        k(   29) = (   0.0000000   0.3750000  -0.1250000), wk =   0.0078125
        k(   30) = (  -0.0000000  -0.5000000  -0.0000000), wk =   0.0039062
        k(   31) = (  -0.0000000  -0.5000000   0.1250000), wk =   0.0078125
        k(   32) = (   0.0000000  -0.5000000   0.2500000), wk =   0.0078125
        k(   33) = (  -0.0000000  -0.5000000   0.3750000), wk =   0.0078125
        k(   34) = (  -0.0000000  -0.5000000  -0.5000000), wk =   0.0039062
        k(   35) = (   0.1250000   0.0000000  -0.0000000), wk =   0.0078125
        k(   36) = (   0.1250000   0.0000000   0.1250000), wk =   0.0078125
        k(   37) = (   0.1250000  -0.0000000   0.2500000), wk =   0.0078125
        k(   38) = (   0.1250000   0.0000000   0.3750000), wk =   0.0078125
        k(   39) = (   0.1250000  -0.0000000  -0.5000000), wk =   0.0078125
        k(   40) = (   0.1250000   0.0000000  -0.3750000), wk =   0.0078125
        k(   41) = (   0.1250000   0.0000000  -0.2500000), wk =   0.0078125
        k(   42) = (   0.1250000  -0.0000000  -0.1250000), wk =   0.0078125
        k(   43) = (   0.1250000   0.1250000  -0.0000000), wk =   0.0078125
        k(   44) = (   0.1250000   0.1250000   0.1250000), wk =   0.0078125
        k(   45) = (   0.1250000   0.1250000   0.2500000), wk =   0.0078125
        k(   46) = (   0.1250000   0.1250000   0.3750000), wk =   0.0078125
        k(   47) = (   0.1250000   0.1250000  -0.5000000), wk =   0.0078125
        k(   48) = (   0.1250000   0.1250000  -0.3750000), wk =   0.0078125
        k(   49) = (   0.1250000   0.1250000  -0.2500000), wk =   0.0078125
        k(   50) = (   0.1250000   0.1250000  -0.1250000), wk =   0.0078125
        k(   51) = (   0.1250000   0.2500000   0.0000000), wk =   0.0078125
        k(   52) = (   0.1250000   0.2500000   0.1250000), wk =   0.0078125
        k(   53) = (   0.1250000   0.2500000   0.2500000), wk =   0.0078125
        k(   54) = (   0.1250000   0.2500000   0.3750000), wk =   0.0078125
        k(   55) = (   0.1250000   0.2500000  -0.5000000), wk =   0.0078125
        k(   56) = (   0.1250000   0.2500000  -0.3750000), wk =   0.0078125
        k(   57) = (   0.1250000   0.2500000  -0.2500000), wk =   0.0078125
        k(   58) = (   0.1250000   0.2500000  -0.1250000), wk =   0.0078125
        k(   59) = (   0.1250000   0.3750000   0.0000000), wk =   0.0078125
        k(   60) = (   0.1250000   0.3750000   0.1250000), wk =   0.0078125
        k(   61) = (   0.1250000   0.3750000   0.2500000), wk =   0.0078125
        k(   62) = (   0.1250000   0.3750000   0.3750000), wk =   0.0078125
        k(   63) = (   0.1250000   0.3750000  -0.5000000), wk =   0.0078125
        k(   64) = (   0.1250000   0.3750000  -0.3750000), wk =   0.0078125
        k(   65) = (   0.1250000   0.3750000  -0.2500000), wk =   0.0078125
        k(   66) = (   0.1250000   0.3750000  -0.1250000), wk =   0.0078125
        k(   67) = (   0.1250000  -0.5000000  -0.0000000), wk =   0.0078125
        k(   68) = (   0.1250000  -0.5000000   0.1250000), wk =   0.0078125
        k(   69) = (   0.1250000  -0.5000000   0.2500000), wk =   0.0078125
        k(   70) = (   0.1250000  -0.5000000   0.3750000), wk =   0.0078125
        k(   71) = (   0.1250000  -0.5000000  -0.5000000), wk =   0.0078125
        k(   72) = (   0.1250000  -0.5000000  -0.3750000), wk =   0.0078125
        k(   73) = (   0.1250000  -0.5000000  -0.2500000), wk =   0.0078125
        k(   74) = (   0.1250000  -0.5000000  -0.1250000), wk =   0.0078125
        k(   75) = (   0.1250000  -0.3750000  -0.0000000), wk =   0.0078125
        k(   76) = (   0.1250000  -0.3750000   0.1250000), wk =   0.0078125
        k(   77) = (   0.1250000  -0.3750000   0.2500000), wk =   0.0078125
        k(   78) = (   0.1250000  -0.3750000   0.3750000), wk =   0.0078125
        k(   79) = (   0.1250000  -0.3750000  -0.5000000), wk =   0.0078125
        k(   80) = (   0.1250000  -0.3750000  -0.3750000), wk =   0.0078125
        k(   81) = (   0.1250000  -0.3750000  -0.2500000), wk =   0.0078125
        k(   82) = (   0.1250000  -0.3750000  -0.1250000), wk =   0.0078125
        k(   83) = (   0.1250000  -0.2500000   0.0000000), wk =   0.0078125
        k(   84) = (   0.1250000  -0.2500000   0.1250000), wk =   0.0078125
        k(   85) = (   0.1250000  -0.2500000   0.2500000), wk =   0.0078125
        k(   86) = (   0.1250000  -0.2500000   0.3750000), wk =   0.0078125
        k(   87) = (   0.1250000  -0.2500000  -0.5000000), wk =   0.0078125
        k(   88) = (   0.1250000  -0.2500000  -0.3750000), wk =   0.0078125
        k(   89) = (   0.1250000  -0.2500000  -0.2500000), wk =   0.0078125
        k(   90) = (   0.1250000  -0.2500000  -0.1250000), wk =   0.0078125
        k(   91) = (   0.1250000  -0.1250000  -0.0000000), wk =   0.0078125
        k(   92) = (   0.1250000  -0.1250000   0.1250000), wk =   0.0078125
        k(   93) = (   0.1250000  -0.1250000   0.2500000), wk =   0.0078125
        k(   94) = (   0.1250000  -0.1250000   0.3750000), wk =   0.0078125
        k(   95) = (   0.1250000  -0.1250000  -0.5000000), wk =   0.0078125
        k(   96) = (   0.1250000  -0.1250000  -0.3750000), wk =   0.0078125
        k(   97) = (   0.1250000  -0.1250000  -0.2500000), wk =   0.0078125
        k(   98) = (   0.1250000  -0.1250000  -0.1250000), wk =   0.0078125
        k(   99) = (   0.2500000   0.0000000  -0.0000000), wk =   0.0078125
        k(  100) = (   0.2500000  -0.0000000   0.1250000), wk =   0.0078125
        k(  101) = (   0.2500000   0.0000000   0.2500000), wk =   0.0078125
        k(  102) = (   0.2500000   0.0000000   0.3750000), wk =   0.0078125
        k(  103) = (   0.2500000   0.0000000  -0.5000000), wk =   0.0078125
        k(  104) = (   0.2500000   0.0000000  -0.3750000), wk =   0.0078125
        k(  105) = (   0.2500000  -0.0000000  -0.2500000), wk =   0.0078125
        k(  106) = (   0.2500000   0.0000000  -0.1250000), wk =   0.0078125
        k(  107) = (   0.2500000   0.1250000  -0.0000000), wk =   0.0078125
        k(  108) = (   0.2500000   0.1250000   0.1250000), wk =   0.0078125
        k(  109) = (   0.2500000   0.1250000   0.2500000), wk =   0.0078125
        k(  110) = (   0.2500000   0.1250000   0.3750000), wk =   0.0078125
        k(  111) = (   0.2500000   0.1250000  -0.5000000), wk =   0.0078125
        k(  112) = (   0.2500000   0.1250000  -0.3750000), wk =   0.0078125
        k(  113) = (   0.2500000   0.1250000  -0.2500000), wk =   0.0078125
        k(  114) = (   0.2500000   0.1250000  -0.1250000), wk =   0.0078125
        k(  115) = (   0.2500000   0.2500000  -0.0000000), wk =   0.0078125
        k(  116) = (   0.2500000   0.2500000   0.1250000), wk =   0.0078125
        k(  117) = (   0.2500000   0.2500000   0.2500000), wk =   0.0078125
        k(  118) = (   0.2500000   0.2500000   0.3750000), wk =   0.0078125
        k(  119) = (   0.2500000   0.2500000  -0.5000000), wk =   0.0078125
        k(  120) = (   0.2500000   0.2500000  -0.3750000), wk =   0.0078125
        k(  121) = (   0.2500000   0.2500000  -0.2500000), wk =   0.0078125
        k(  122) = (   0.2500000   0.2500000  -0.1250000), wk =   0.0078125
        k(  123) = (   0.2500000   0.3750000   0.0000000), wk =   0.0078125
        k(  124) = (   0.2500000   0.3750000   0.1250000), wk =   0.0078125
        k(  125) = (   0.2500000   0.3750000   0.2500000), wk =   0.0078125
        k(  126) = (   0.2500000   0.3750000   0.3750000), wk =   0.0078125
        k(  127) = (   0.2500000   0.3750000  -0.5000000), wk =   0.0078125
        k(  128) = (   0.2500000   0.3750000  -0.3750000), wk =   0.0078125
        k(  129) = (   0.2500000   0.3750000  -0.2500000), wk =   0.0078125
        k(  130) = (   0.2500000   0.3750000  -0.1250000), wk =   0.0078125
        k(  131) = (   0.2500000  -0.5000000   0.0000000), wk =   0.0078125
        k(  132) = (   0.2500000  -0.5000000   0.1250000), wk =   0.0078125
        k(  133) = (   0.2500000  -0.5000000   0.2500000), wk =   0.0078125
        k(  134) = (   0.2500000  -0.5000000   0.3750000), wk =   0.0078125
        k(  135) = (   0.2500000  -0.5000000  -0.5000000), wk =   0.0078125
        k(  136) = (   0.2500000  -0.5000000  -0.3750000), wk =   0.0078125
        k(  137) = (   0.2500000  -0.5000000  -0.2500000), wk =   0.0078125
        k(  138) = (   0.2500000  -0.5000000  -0.1250000), wk =   0.0078125
        k(  139) = (   0.2500000  -0.3750000   0.0000000), wk =   0.0078125
        k(  140) = (   0.2500000  -0.3750000   0.1250000), wk =   0.0078125
        k(  141) = (   0.2500000  -0.3750000   0.2500000), wk =   0.0078125
        k(  142) = (   0.2500000  -0.3750000   0.3750000), wk =   0.0078125
        k(  143) = (   0.2500000  -0.3750000  -0.5000000), wk =   0.0078125
        k(  144) = (   0.2500000  -0.3750000  -0.3750000), wk =   0.0078125
        k(  145) = (   0.2500000  -0.3750000  -0.2500000), wk =   0.0078125
        k(  146) = (   0.2500000  -0.3750000  -0.1250000), wk =   0.0078125
        k(  147) = (   0.2500000  -0.2500000  -0.0000000), wk =   0.0078125
        k(  148) = (   0.2500000  -0.2500000   0.1250000), wk =   0.0078125
        k(  149) = (   0.2500000  -0.2500000   0.2500000), wk =   0.0078125
        k(  150) = (   0.2500000  -0.2500000   0.3750000), wk =   0.0078125
        k(  151) = (   0.2500000  -0.2500000  -0.5000000), wk =   0.0078125
        k(  152) = (   0.2500000  -0.2500000  -0.3750000), wk =   0.0078125
        k(  153) = (   0.2500000  -0.2500000  -0.2500000), wk =   0.0078125
        k(  154) = (   0.2500000  -0.2500000  -0.1250000), wk =   0.0078125
        k(  155) = (   0.2500000  -0.1250000   0.0000000), wk =   0.0078125
        k(  156) = (   0.2500000  -0.1250000   0.1250000), wk =   0.0078125
        k(  157) = (   0.2500000  -0.1250000   0.2500000), wk =   0.0078125
        k(  158) = (   0.2500000  -0.1250000   0.3750000), wk =   0.0078125
        k(  159) = (   0.2500000  -0.1250000  -0.5000000), wk =   0.0078125
        k(  160) = (   0.2500000  -0.1250000  -0.3750000), wk =   0.0078125
        k(  161) = (   0.2500000  -0.1250000  -0.2500000), wk =   0.0078125
        k(  162) = (   0.2500000  -0.1250000  -0.1250000), wk =   0.0078125
        k(  163) = (   0.3750000  -0.0000000   0.0000000), wk =   0.0078125
        k(  164) = (   0.3750000   0.0000000   0.1250000), wk =   0.0078125
        k(  165) = (   0.3750000  -0.0000000   0.2500000), wk =   0.0078125
        k(  166) = (   0.3750000   0.0000000   0.3750000), wk =   0.0078125
        k(  167) = (   0.3750000   0.0000000  -0.5000000), wk =   0.0078125
        k(  168) = (   0.3750000   0.0000000  -0.3750000), wk =   0.0078125
        k(  169) = (   0.3750000   0.0000000  -0.2500000), wk =   0.0078125
        k(  170) = (   0.3750000  -0.0000000  -0.1250000), wk =   0.0078125
        k(  171) = (   0.3750000   0.1250000   0.0000000), wk =   0.0078125
        k(  172) = (   0.3750000   0.1250000   0.1250000), wk =   0.0078125
        k(  173) = (   0.3750000   0.1250000   0.2500000), wk =   0.0078125
        k(  174) = (   0.3750000   0.1250000   0.3750000), wk =   0.0078125
        k(  175) = (   0.3750000   0.1250000  -0.5000000), wk =   0.0078125
        k(  176) = (   0.3750000   0.1250000  -0.3750000), wk =   0.0078125
        k(  177) = (   0.3750000   0.1250000  -0.2500000), wk =   0.0078125
        k(  178) = (   0.3750000   0.1250000  -0.1250000), wk =   0.0078125
        k(  179) = (   0.3750000   0.2500000  -0.0000000), wk =   0.0078125
        k(  180) = (   0.3750000   0.2500000   0.1250000), wk =   0.0078125
        k(  181) = (   0.3750000   0.2500000   0.2500000), wk =   0.0078125
        k(  182) = (   0.3750000   0.2500000   0.3750000), wk =   0.0078125
        k(  183) = (   0.3750000   0.2500000  -0.5000000), wk =   0.0078125
        k(  184) = (   0.3750000   0.2500000  -0.3750000), wk =   0.0078125
        k(  185) = (   0.3750000   0.2500000  -0.2500000), wk =   0.0078125
        k(  186) = (   0.3750000   0.2500000  -0.1250000), wk =   0.0078125
        k(  187) = (   0.3750000   0.3750000   0.0000000), wk =   0.0078125
        k(  188) = (   0.3750000   0.3750000   0.1250000), wk =   0.0078125
        k(  189) = (   0.3750000   0.3750000   0.2500000), wk =   0.0078125
        k(  190) = (   0.3750000   0.3750000   0.3750000), wk =   0.0078125
        k(  191) = (   0.3750000   0.3750000  -0.5000000), wk =   0.0078125
        k(  192) = (   0.3750000   0.3750000  -0.3750000), wk =   0.0078125
        k(  193) = (   0.3750000   0.3750000  -0.2500000), wk =   0.0078125
        k(  194) = (   0.3750000   0.3750000  -0.1250000), wk =   0.0078125
        k(  195) = (   0.3750000  -0.5000000  -0.0000000), wk =   0.0078125
        k(  196) = (   0.3750000  -0.5000000   0.1250000), wk =   0.0078125
        k(  197) = (   0.3750000  -0.5000000   0.2500000), wk =   0.0078125
        k(  198) = (   0.3750000  -0.5000000   0.3750000), wk =   0.0078125
        k(  199) = (   0.3750000  -0.5000000  -0.5000000), wk =   0.0078125
        k(  200) = (   0.3750000  -0.5000000  -0.3750000), wk =   0.0078125
        k(  201) = (   0.3750000  -0.5000000  -0.2500000), wk =   0.0078125
        k(  202) = (   0.3750000  -0.5000000  -0.1250000), wk =   0.0078125
        k(  203) = (   0.3750000  -0.3750000   0.0000000), wk =   0.0078125
        k(  204) = (   0.3750000  -0.3750000   0.1250000), wk =   0.0078125
        k(  205) = (   0.3750000  -0.3750000   0.2500000), wk =   0.0078125
        k(  206) = (   0.3750000  -0.3750000   0.3750000), wk =   0.0078125
        k(  207) = (   0.3750000  -0.3750000  -0.5000000), wk =   0.0078125
        k(  208) = (   0.3750000  -0.3750000  -0.3750000), wk =   0.0078125
        k(  209) = (   0.3750000  -0.3750000  -0.2500000), wk =   0.0078125
        k(  210) = (   0.3750000  -0.3750000  -0.1250000), wk =   0.0078125
        k(  211) = (   0.3750000  -0.2500000   0.0000000), wk =   0.0078125
        k(  212) = (   0.3750000  -0.2500000   0.1250000), wk =   0.0078125
        k(  213) = (   0.3750000  -0.2500000   0.2500000), wk =   0.0078125
        k(  214) = (   0.3750000  -0.2500000   0.3750000), wk =   0.0078125
        k(  215) = (   0.3750000  -0.2500000  -0.5000000), wk =   0.0078125
        k(  216) = (   0.3750000  -0.2500000  -0.3750000), wk =   0.0078125
        k(  217) = (   0.3750000  -0.2500000  -0.2500000), wk =   0.0078125
        k(  218) = (   0.3750000  -0.2500000  -0.1250000), wk =   0.0078125
        k(  219) = (   0.3750000  -0.1250000  -0.0000000), wk =   0.0078125
        k(  220) = (   0.3750000  -0.1250000   0.1250000), wk =   0.0078125
        k(  221) = (   0.3750000  -0.1250000   0.2500000), wk =   0.0078125
        k(  222) = (   0.3750000  -0.1250000   0.3750000), wk =   0.0078125
        k(  223) = (   0.3750000  -0.1250000  -0.5000000), wk =   0.0078125
        k(  224) = (   0.3750000  -0.1250000  -0.3750000), wk =   0.0078125
        k(  225) = (   0.3750000  -0.1250000  -0.2500000), wk =   0.0078125
        k(  226) = (   0.3750000  -0.1250000  -0.1250000), wk =   0.0078125
        k(  227) = (  -0.5000000  -0.0000000   0.0000000), wk =   0.0039062
        k(  228) = (  -0.5000000   0.0000000   0.1250000), wk =   0.0078125
        k(  229) = (  -0.5000000  -0.0000000   0.2500000), wk =   0.0078125
        k(  230) = (  -0.5000000  -0.0000000   0.3750000), wk =   0.0078125
        k(  231) = (  -0.5000000  -0.0000000  -0.5000000), wk =   0.0039062
        k(  232) = (  -0.5000000   0.1250000   0.0000000), wk =   0.0078125
        k(  233) = (  -0.5000000   0.1250000   0.1250000), wk =   0.0078125
        k(  234) = (  -0.5000000   0.1250000   0.2500000), wk =   0.0078125
        k(  235) = (  -0.5000000   0.1250000   0.3750000), wk =   0.0078125
        k(  236) = (  -0.5000000   0.1250000  -0.5000000), wk =   0.0078125
        k(  237) = (  -0.5000000   0.1250000  -0.3750000), wk =   0.0078125
        k(  238) = (  -0.5000000   0.1250000  -0.2500000), wk =   0.0078125
        k(  239) = (  -0.5000000   0.1250000  -0.1250000), wk =   0.0078125
        k(  240) = (  -0.5000000   0.2500000  -0.0000000), wk =   0.0078125
        k(  241) = (  -0.5000000   0.2500000   0.1250000), wk =   0.0078125
        k(  242) = (  -0.5000000   0.2500000   0.2500000), wk =   0.0078125
        k(  243) = (  -0.5000000   0.2500000   0.3750000), wk =   0.0078125
        k(  244) = (  -0.5000000   0.2500000  -0.5000000), wk =   0.0078125
        k(  245) = (  -0.5000000   0.2500000  -0.3750000), wk =   0.0078125
        k(  246) = (  -0.5000000   0.2500000  -0.2500000), wk =   0.0078125
        k(  247) = (  -0.5000000   0.2500000  -0.1250000), wk =   0.0078125
        k(  248) = (  -0.5000000   0.3750000  -0.0000000), wk =   0.0078125
        k(  249) = (  -0.5000000   0.3750000   0.1250000), wk =   0.0078125
        k(  250) = (  -0.5000000   0.3750000   0.2500000), wk =   0.0078125
        k(  251) = (  -0.5000000   0.3750000   0.3750000), wk =   0.0078125
        k(  252) = (  -0.5000000   0.3750000  -0.5000000), wk =   0.0078125
        k(  253) = (  -0.5000000   0.3750000  -0.3750000), wk =   0.0078125
        k(  254) = (  -0.5000000   0.3750000  -0.2500000), wk =   0.0078125
        k(  255) = (  -0.5000000   0.3750000  -0.1250000), wk =   0.0078125
        k(  256) = (  -0.5000000  -0.5000000   0.0000000), wk =   0.0039062
        k(  257) = (  -0.5000000  -0.5000000   0.1250000), wk =   0.0078125
        k(  258) = (  -0.5000000  -0.5000000   0.2500000), wk =   0.0078125
        k(  259) = (  -0.5000000  -0.5000000   0.3750000), wk =   0.0078125
        k(  260) = (  -0.5000000  -0.5000000  -0.5000000), wk =   0.0039062

     Dense  grid:    78871 G-vectors     FFT dimensions: (  50,  50,  80)

     Smooth grid:    30599 G-vectors     FFT dimensions: (  36,  36,  54)

     Dynamical RAM for                 wfc:       0.06 MB

     Dynamical RAM for     wfc (w. buffer):       3.85 MB

     Dynamical RAM for           str. fact:       0.15 MB

     Dynamical RAM for           local pot:       0.00 MB

     Dynamical RAM for          nlocal pot:       0.23 MB

     Dynamical RAM for                qrad:       5.25 MB

     Dynamical RAM for          rho,v,vnew:       0.51 MB

     Dynamical RAM for               rhoin:       0.17 MB

     Dynamical RAM for            rho*nmix:       1.20 MB

     Dynamical RAM for           G-vectors:       0.30 MB

     Dynamical RAM for          h,s,v(r/c):       0.05 MB

     Dynamical RAM for          <psi|beta>:       0.02 MB

     Dynamical RAM for                 psi:       0.23 MB

     Dynamical RAM for                hpsi:       0.23 MB

     Dynamical RAM for                spsi:       0.23 MB

     Dynamical RAM for      wfcinit/wfcrot:       0.14 MB

     Dynamical RAM for           addusdens:       3.95 MB

     Dynamical RAM for          addusforce:       4.10 MB

     Dynamical RAM for         addusstress:       4.16 MB

     Estimated static dynamical RAM per process >      12.37 MB

     Estimated max dynamical RAM per process >      16.53 MB

     Estimated total dynamical RAM >       1.03 GB

     Check: negative core charge=   -0.000003

     Initial potential from superposition of free atoms

     starting charge   31.39954, renormalised to   32.00000
     Starting wfcs are   18 randomized atomic wfcs

     total cpu time spent up to now is        0.9 secs

     Self-consistent Calculation

     iteration #  1     ecut=    80.00 Ry     beta= 0.50
     Davidson diagonalization with overlap
     ethr =  1.00E-02,  avg # of iterations =  2.0

     total cpu time spent up to now is        1.6 secs

     total energy              =    -314.89515470 Ry
     Harris-Foulkes estimate   =    -315.45906316 Ry
     estimated scf accuracy    <       0.89169779 Ry

     iteration #  2     ecut=    80.00 Ry     beta= 0.50
     Davidson diagonalization with overlap
     ethr =  2.79E-03,  avg # of iterations =  2.8

     total cpu time spent up to now is        2.3 secs

     total energy              =    -315.13420218 Ry
     Harris-Foulkes estimate   =    -315.24627648 Ry
     estimated scf accuracy    <       0.25898798 Ry

     iteration #  3     ecut=    80.00 Ry     beta= 0.50
     Davidson diagonalization with overlap
     ethr =  8.09E-04,  avg # of iterations =  2.0

     total cpu time spent up to now is        3.0 secs

     total energy              =    -315.17840814 Ry
     Harris-Foulkes estimate   =    -315.18129700 Ry
     estimated scf accuracy    <       0.00954429 Ry

     iteration #  4     ecut=    80.00 Ry     beta= 0.50
     Davidson diagonalization with overlap
     ethr =  2.98E-05,  avg # of iterations =  1.9

     total cpu time spent up to now is        3.6 secs

     total energy              =    -315.17900863 Ry
     Harris-Foulkes estimate   =    -315.17904004 Ry
     estimated scf accuracy    <       0.00051283 Ry

     iteration #  5     ecut=    80.00 Ry     beta= 0.50
     Davidson diagonalization with overlap
     ethr =  1.60E-06,  avg # of iterations =  2.0

     total cpu time spent up to now is        4.3 secs

     total energy              =    -315.17906503 Ry
     Harris-Foulkes estimate   =    -315.17906623 Ry
     estimated scf accuracy    <       0.00002235 Ry

     iteration #  6     ecut=    80.00 Ry     beta= 0.50
     Davidson diagonalization with overlap
     ethr =  6.99E-08,  avg # of iterations =  2.5

     total cpu time spent up to now is        5.0 secs

     End of self-consistent calculation

          k = 0.0000 0.0000 0.0000 (  3813 PWs)   bands (ev):

   -66.7561 -66.7510 -33.7811 -33.7296 -33.7246 -33.7246 -33.7145 -33.7145
   -11.4310 -10.5386   1.4381   3.8747   3.8747   4.2645   4.2645   4.8265

     occupation numbers 
     1.0000   1.0000   1.0000   1.0000   1.0000   1.0000   1.0000   1.0000
     1.0000   1.0000   1.0000   1.0000   1.0000   1.0000   1.0000   1.0000

          k =-0.0000-0.0000 0.0850 (  3795 PWs)   bands (ev):

   -66.7559 -66.7512 -33.7792 -33.7316 -33.7242 -33.7242 -33.7149 -33.7149
   -11.3991 -10.5748   1.5238   3.8889   3.8889   4.2490   4.2490   4.5762

     occupation numbers 
     1.0000   1.0000   1.0000   1.0000   1.0000   1.0000   1.0000   1.0000
     1.0000   1.0000   1.0000   1.0000   1.0000   1.0000   1.0000   1.0000

          k =-0.0000-0.0000 0.1700 (  3806 PWs)   bands (ev):

   -66.7554 -66.7517 -33.7737 -33.7373 -33.7231 -33.7231 -33.7160 -33.7160
   -11.3074 -10.6770   1.7762   3.9295   3.9295   4.0039   4.2050   4.2050

     occupation numbers 
     1.0000   1.0000   1.0000   1.0000   1.0000   1.0000   1.0000   1.0000
     1.0000   1.0000   1.0000   1.0000   1.0000   1.0000   1.0000   1.0000

          k =-0.0000-0.0000 0.2550 (  3854 PWs)   bands (ev):

   -66.7545 -66.7526 -33.7655 -33.7457 -33.7215 -33.7215 -33.7176 -33.7176
   -11.1679 -10.8270   2.1814   3.3438   3.9909   3.9909   4.1400   4.1400

     occupation numbers 
     1.0000   1.0000   1.0000   1.0000   1.0000   1.0000   1.0000   1.0000
     1.0000   1.0000   1.0000   1.0000   1.0000   1.0000   1.0000   1.0000

          k = 0.0000 0.0000-0.3400 (  3842 PWs)   bands (ev):

   -66.7535 -66.7535 -33.7556 -33.7556 -33.7196 -33.7196 -33.7196 -33.7196
   -10.9997 -10.9995   2.7160   2.7161   4.0647   4.0647   4.0649   4.0649

     occupation numbers 
     1.0000   1.0000   1.0000   1.0000   1.0000   1.0000   1.0000   1.0000
     1.0000   1.0000   1.0000   1.0000   1.0000   1.0000   1.0000   1.0000

          k =-0.0000 0.1443-0.0000 (  3821 PWs)   bands (ev):

   -66.7557 -66.7509 -33.7791 -33.7310 -33.7282 -33.7258 -33.7185 -33.7150
   -11.3498 -10.5148   1.5857   3.5054   3.7734   3.8298   4.2795   4.7607

     occupation numbers 
     1.0000   1.0000   1.0000   1.0000   1.0000   1.0000   1.0000   1.0000
     1.0000   1.0000   1.0000   1.0000   1.0000   1.0000   1.0000   1.0000

          k =-0.0000 0.1443 0.0850 (  3821 PWs)   bands (ev):

   -66.7555 -66.7511 -33.7774 -33.7333 -33.7277 -33.7254 -33.7184 -33.7154
   -11.3196 -10.5482   1.6522   3.5134   3.7665   3.7914   4.2588   4.6526

     occupation numbers 
     1.0000   1.0000   1.0000   1.0000   1.0000   1.0000   1.0000   1.0000
     1.0000   1.0000   1.0000   1.0000   1.0000   1.0000   1.0000   1.0000

          k =-0.0000 0.1443 0.1700 (  3826 PWs)   bands (ev):

   -66.7550 -66.7516 -33.7727 -33.7393 -33.7263 -33.7243 -33.7188 -33.7166
   -11.2328 -10.6427   1.8482   3.3862   3.7186   3.8431   4.2007   4.4230

     occupation numbers 
     1.0000   1.0000   1.0000   1.0000   1.0000   1.0000   1.0000   1.0000
     1.0000   1.0000   1.0000   1.0000   1.0000   1.0000   1.0000   1.0000

          k =-0.0000 0.1443 0.2550 (  3830 PWs)   bands (ev):

   -66.7542 -66.7524 -33.7654 -33.7475 -33.7242 -33.7225 -33.7200 -33.7183
   -11.1013 -10.7820   2.1613   3.0076   3.8294   3.9220   4.1154   4.1954

     occupation numbers 
     1.0000   1.0000   1.0000   1.0000   1.0000   1.0000   1.0000   1.0000
     1.0000   1.0000   1.0000   1.0000   1.0000   1.0000   1.0000   1.0000

          k = 0.0000 0.1443-0.3400 (  3826 PWs)   bands (ev):

   -66.7533 -66.7533 -33.7566 -33.7566 -33.7220 -33.7220 -33.7204 -33.7204
   -10.9434 -10.9431   2.5652   2.5653   3.9969   3.9971   4.0173   4.0175

     occupation numbers 
     1.0000   1.0000   1.0000   1.0000   1.0000   1.0000   1.0000   1.0000
     1.0000   1.0000   1.0000   1.0000   1.0000   1.0000   1.0000   1.0000

          k =-0.0000 0.1443-0.2550 (  3830 PWs)   bands (ev):

   -66.7542 -66.7524 -33.7654 -33.7475 -33.7242 -33.7225 -33.7200 -33.7183
   -11.1013 -10.7820   2.1613   3.0076   3.8294   3.9220   4.1154   4.1954

     occupation numbers 
     1.0000   1.0000   1.0000   1.0000   1.0000   1.0000   1.0000   1.0000
     1.0000   1.0000   1.0000   1.0000   1.0000   1.0000   1.0000   1.0000

          k =-0.0000 0.1443-0.1700 (  3826 PWs)   bands (ev):

   -66.7550 -66.7516 -33.7727 -33.7393 -33.7263 -33.7243 -33.7188 -33.7166
   -11.2328 -10.6427   1.8482   3.3862   3.7186   3.8431   4.2007   4.4230

     occupation numbers 
     1.0000   1.0000   1.0000   1.0000   1.0000   1.0000   1.0000   1.0000
     1.0000   1.0000   1.0000   1.0000   1.0000   1.0000   1.0000   1.0000

          k =-0.0000 0.1443-0.0850 (  3821 PWs)   bands (ev):

   -66.7555 -66.7511 -33.7774 -33.7333 -33.7277 -33.7254 -33.7184 -33.7154
   -11.3196 -10.5482   1.6522   3.5134   3.7665   3.7914   4.2588   4.6526

     occupation numbers 
     1.0000   1.0000   1.0000   1.0000   1.0000   1.0000   1.0000   1.0000
     1.0000   1.0000   1.0000   1.0000   1.0000   1.0000   1.0000   1.0000

          k =-0.0000 0.2887-0.0000 (  3818 PWs)   bands (ev):

   -66.7547 -66.7509 -33.7736 -33.7368 -33.7352 -33.7287 -33.7279 -33.7163
   -11.1379 -10.4676   1.9945   2.6053   3.2286   3.5743   4.2753   4.5496

     occupation numbers 
     1.0000   1.0000   1.0000   1.0000   1.0000   1.0000   1.0000   1.0000
     1.0000   1.0000   1.0000   1.0000   1.0000   1.0000   1.0000   1.0000

          k =-0.0000 0.2887 0.0850 (  3822 PWs)   bands (ev):

   -66.7546 -66.7511 -33.7728 -33.7390 -33.7356 -33.7283 -33.7262 -33.7167
   -11.1126 -10.4932   1.9611   2.6470   3.2177   3.5985   4.2457   4.5291

     occupation numbers 
     1.0000   1.0000   1.0000   1.0000   1.0000   1.0000   1.0000   1.0000
     1.0000   1.0000   1.0000   1.0000   1.0000   1.0000   1.0000   1.0000

          k =-0.0000 0.2887 0.1700 (  3824 PWs)   bands (ev):

   -66.7542 -66.7515 -33.7702 -33.7456 -33.7332 -33.7269 -33.7247 -33.7181
   -11.0405 -10.5662   1.9348   2.5828   3.3413   3.6682   4.1629   4.4394

     occupation numbers 
     1.0000   1.0000   1.0000   1.0000   1.0000   1.0000   1.0000   1.0000
     1.0000   1.0000   1.0000   1.0000   1.0000   1.0000   1.0000   1.0000

          k =-0.0000 0.2887 0.2550 (  3838 PWs)   bands (ev):

   -66.7536 -66.7521 -33.7659 -33.7530 -33.7300 -33.7250 -33.7249 -33.7201
   -10.9323 -10.6754   1.9906   2.3655   3.6358   3.7754   4.0427   4.2477

     occupation numbers 
     1.0000   1.0000   1.0000   1.0000   1.0000   1.0000   1.0000   1.0000
     1.0000   1.0000   1.0000   1.0000   1.0000   1.0000   1.0000   1.0000

          k =-0.0000 0.2887-0.3400 (  3852 PWs)   bands (ev):

   -66.7528 -66.7528 -33.7600 -33.7600 -33.7269 -33.7269 -33.7225 -33.7225
   -10.8042 -10.8039   2.1430   2.1431   3.9062   3.9064   3.9645   3.9645

     occupation numbers 
     1.0000   1.0000   1.0000   1.0000   1.0000   1.0000   1.0000   1.0000
     1.0000   1.0000   1.0000   1.0000   1.0000   1.0000   1.0000   1.0000

          k =-0.0000 0.2887-0.2550 (  3838 PWs)   bands (ev):

   -66.7536 -66.7521 -33.7659 -33.7530 -33.7300 -33.7250 -33.7249 -33.7201
   -10.9323 -10.6754   1.9906   2.3655   3.6358   3.7754   4.0427   4.2477

     occupation numbers 
     1.0000   1.0000   1.0000   1.0000   1.0000   1.0000   1.0000   1.0000
     1.0000   1.0000   1.0000   1.0000   1.0000   1.0000   1.0000   1.0000

          k =-0.0000 0.2887-0.1700 (  3824 PWs)   bands (ev):

   -66.7542 -66.7515 -33.7702 -33.7456 -33.7332 -33.7269 -33.7247 -33.7181
   -11.0405 -10.5662   1.9348   2.5828   3.3413   3.6682   4.1629   4.4394

     occupation numbers 
     1.0000   1.0000   1.0000   1.0000   1.0000   1.0000   1.0000   1.0000
     1.0000   1.0000   1.0000   1.0000   1.0000   1.0000   1.0000   1.0000

          k =-0.0000 0.2887-0.0850 (  3822 PWs)   bands (ev):

   -66.7546 -66.7511 -33.7728 -33.7390 -33.7356 -33.7283 -33.7262 -33.7167
   -11.1126 -10.4932   1.9611   2.6470   3.2177   3.5985   4.2457   4.5291

     occupation numbers 
     1.0000   1.0000   1.0000   1.0000   1.0000   1.0000   1.0000   1.0000
     1.0000   1.0000   1.0000   1.0000   1.0000   1.0000   1.0000   1.0000

          k =-0.0000 0.4330-0.0000 (  3830 PWs)   bands (ev):

   -66.7536 -66.7511 -33.7666 -33.7453 -33.7422 -33.7360 -33.7315 -33.7176
   -10.8859 -10.4521   1.8530   2.5543   2.7729   3.4067   4.1942   4.2468

     occupation numbers 
     1.0000   1.0000   1.0000   1.0000   1.0000   1.0000   1.0000   1.0000
     1.0000   1.0000   1.0000   1.0000   1.0000   1.0000   1.0000   1.0000

          k =-0.0000 0.4330 0.0850 (  3837 PWs)   bands (ev):

   -66.7535 -66.7512 -33.7673 -33.7471 -33.7428 -33.7329 -33.7310 -33.7181
   -10.8682 -10.4672   1.7706   2.4432   2.9278   3.4350   4.2105   4.2473

     occupation numbers 
     1.0000   1.0000   1.0000   1.0000   1.0000   1.0000   1.0000   1.0000
     1.0000   1.0000   1.0000   1.0000   1.0000   1.0000   1.0000   1.0000

          k =-0.0000 0.4330 0.1700 (  3845 PWs)   bands (ev):

   -66.7532 -66.7514 -33.7682 -33.7537 -33.7386 -33.7298 -33.7295 -33.7197
   -10.8182 -10.5108   1.6516   2.1792   3.2797   3.5170   4.1092   4.3087

     occupation numbers 
     1.0000   1.0000   1.0000   1.0000   1.0000   1.0000   1.0000   1.0000
     1.0000   1.0000   1.0000   1.0000   1.0000   1.0000   1.0000   1.0000

          k =-0.0000 0.4330 0.2550 (  3834 PWs)   bands (ev):

   -66.7528 -66.7518 -33.7676 -33.7600 -33.7339 -33.7289 -33.7272 -33.7219
   -10.7446 -10.5780   1.6177   1.9043   3.6436   3.6747   3.9634   4.2457

     occupation numbers 
     1.0000   1.0000   1.0000   1.0000   1.0000   1.0000   1.0000   1.0000
     1.0000   1.0000   1.0000   1.0000   1.0000   1.0000   1.0000   1.0000

          k =-0.0000 0.4330-0.3400 (  3834 PWs)   bands (ev):

   -66.7523 -66.7523 -33.7648 -33.7648 -33.7304 -33.7304 -33.7246 -33.7246
   -10.6601 -10.6599   1.7039   1.7040   3.7995   3.7997   4.0209   4.0210

     occupation numbers 
     1.0000   1.0000   1.0000   1.0000   1.0000   1.0000   1.0000   1.0000
     1.0000   1.0000   1.0000   1.0000   1.0000   1.0000   1.0000   1.0000

          k =-0.0000 0.4330-0.2550 (  3834 PWs)   bands (ev):

   -66.7528 -66.7518 -33.7676 -33.7600 -33.7339 -33.7289 -33.7272 -33.7219
   -10.7446 -10.5780   1.6177   1.9043   3.6436   3.6747   3.9634   4.2457

     occupation numbers 
     1.0000   1.0000   1.0000   1.0000   1.0000   1.0000   1.0000   1.0000
     1.0000   1.0000   1.0000   1.0000   1.0000   1.0000   1.0000   1.0000

          k =-0.0000 0.4330-0.1700 (  3845 PWs)   bands (ev):

   -66.7532 -66.7514 -33.7682 -33.7537 -33.7386 -33.7298 -33.7295 -33.7197
   -10.8182 -10.5108   1.6516   2.1792   3.2797   3.5170   4.1092   4.3087

     occupation numbers 
     1.0000   1.0000   1.0000   1.0000   1.0000   1.0000   1.0000   1.0000
     1.0000   1.0000   1.0000   1.0000   1.0000   1.0000   1.0000   1.0000

          k =-0.0000 0.4330-0.0850 (  3837 PWs)   bands (ev):

   -66.7535 -66.7512 -33.7673 -33.7471 -33.7428 -33.7329 -33.7310 -33.7181
   -10.8682 -10.4672   1.7706   2.4432   2.9278   3.4350   4.2105   4.2473

     occupation numbers 
     1.0000   1.0000   1.0000   1.0000   1.0000   1.0000   1.0000   1.0000
     1.0000   1.0000   1.0000   1.0000   1.0000   1.0000   1.0000   1.0000

          k = 0.0000-0.5774 0.0000 (  3824 PWs)   bands (ev):

   -66.7530 -66.7513 -33.7627 -33.7484 -33.7467 -33.7391 -33.7327 -33.7182
   -10.7499 -10.4746   1.5801   2.5654   2.9509   3.3429   3.9152   4.2313

     occupation numbers 
     1.0000   1.0000   1.0000   1.0000   1.0000   1.0000   1.0000   1.0000
     1.0000   1.0000   1.0000   1.0000   1.0000   1.0000   1.0000   1.0000

          k = 0.0000-0.5774 0.0850 (  3834 PWs)   bands (ev):

   -66.7529 -66.7513 -33.7647 -33.7511 -33.7455 -33.7358 -33.7321 -33.7187
   -10.7375 -10.4830   1.5276   2.3995   3.0810   3.3726   4.0295   4.1925

     occupation numbers 
     1.0000   1.0000   1.0000   1.0000   1.0000   1.0000   1.0000   1.0000
     1.0000   1.0000   1.0000   1.0000   1.0000   1.0000   1.0000   1.0000

          k = 0.0000-0.5774 0.1700 (  3834 PWs)   bands (ev):

   -66.7527 -66.7515 -33.7675 -33.7576 -33.7400 -33.7320 -33.7306 -33.7203
   -10.7031 -10.5080   1.4429   2.0656   3.3902   3.4588   4.0847   4.1967

     occupation numbers 
     1.0000   1.0000   1.0000   1.0000   1.0000   1.0000   1.0000   1.0000
     1.0000   1.0000   1.0000   1.0000   1.0000   1.0000   1.0000   1.0000

          k = 0.0000-0.5774 0.2550 (  3838 PWs)   bands (ev):

   -66.7524 -66.7518 -33.7686 -33.7634 -33.7348 -33.7304 -33.7282 -33.7227
   -10.6537 -10.5479   1.4260   1.7475   3.5920   3.7500   3.9300   4.2218

     occupation numbers 
     1.0000   1.0000   1.0000   1.0000   1.0000   1.0000   1.0000   1.0000
     1.0000   1.0000   1.0000   1.0000   1.0000   1.0000   1.0000   1.0000

          k = 0.0000-0.5774-0.3400 (  3824 PWs)   bands (ev):

   -66.7521 -66.7521 -33.7672 -33.7672 -33.7314 -33.7314 -33.7254 -33.7254
   -10.5990 -10.5987   1.5250   1.5251   3.7565   3.7567   4.0566   4.0567

     occupation numbers 
     1.0000   1.0000   1.0000   1.0000   1.0000   1.0000   1.0000   1.0000
     1.0000   1.0000   1.0000   1.0000   1.0000   1.0000   1.0000   1.0000

          k = 0.1250 0.0722-0.0000 (  3821 PWs)   bands (ev):

   -66.7557 -66.7509 -33.7791 -33.7310 -33.7282 -33.7258 -33.7185 -33.7150
   -11.3498 -10.5148   1.5857   3.5054   3.7734   3.8298   4.2795   4.7607

     occupation numbers 
     1.0000   1.0000   1.0000   1.0000   1.0000   1.0000   1.0000   1.0000
     1.0000   1.0000   1.0000   1.0000   1.0000   1.0000   1.0000   1.0000

          k = 0.1250 0.0722 0.0850 (  3821 PWs)   bands (ev):

   -66.7555 -66.7511 -33.7774 -33.7333 -33.7277 -33.7254 -33.7184 -33.7154
   -11.3196 -10.5482   1.6522   3.5134   3.7665   3.7914   4.2588   4.6526

     occupation numbers 
     1.0000   1.0000   1.0000   1.0000   1.0000   1.0000   1.0000   1.0000
     1.0000   1.0000   1.0000   1.0000   1.0000   1.0000   1.0000   1.0000

          k = 0.1250 0.0722 0.1700 (  3826 PWs)   bands (ev):

   -66.7550 -66.7516 -33.7727 -33.7393 -33.7263 -33.7243 -33.7188 -33.7166
   -11.2328 -10.6427   1.8482   3.3862   3.7186   3.8431   4.2007   4.4230

     occupation numbers 
     1.0000   1.0000   1.0000   1.0000   1.0000   1.0000   1.0000   1.0000
     1.0000   1.0000   1.0000   1.0000   1.0000   1.0000   1.0000   1.0000

          k = 0.1250 0.0722 0.2550 (  3830 PWs)   bands (ev):

   -66.7542 -66.7524 -33.7654 -33.7475 -33.7242 -33.7225 -33.7200 -33.7183
   -11.1013 -10.7820   2.1613   3.0076   3.8295   3.9220   4.1154   4.1954

     occupation numbers 
     1.0000   1.0000   1.0000   1.0000   1.0000   1.0000   1.0000   1.0000
     1.0000   1.0000   1.0000   1.0000   1.0000   1.0000   1.0000   1.0000

          k = 0.1250 0.0722-0.3400 (  3826 PWs)   bands (ev):

   -66.7533 -66.7533 -33.7566 -33.7566 -33.7220 -33.7220 -33.7204 -33.7204
   -10.9434 -10.9431   2.5652   2.5653   3.9969   3.9971   4.0173   4.0175

     occupation numbers 
     1.0000   1.0000   1.0000   1.0000   1.0000   1.0000   1.0000   1.0000
     1.0000   1.0000   1.0000   1.0000   1.0000   1.0000   1.0000   1.0000

          k = 0.1250 0.0722-0.2550 (  3830 PWs)   bands (ev):

   -66.7542 -66.7524 -33.7654 -33.7475 -33.7242 -33.7225 -33.7200 -33.7183
   -11.1013 -10.7820   2.1613   3.0076   3.8295   3.9220   4.1154   4.1954

     occupation numbers 
     1.0000   1.0000   1.0000   1.0000   1.0000   1.0000   1.0000   1.0000
     1.0000   1.0000   1.0000   1.0000   1.0000   1.0000   1.0000   1.0000

          k = 0.1250 0.0722-0.1700 (  3826 PWs)   bands (ev):

   -66.7550 -66.7516 -33.7727 -33.7393 -33.7263 -33.7243 -33.7188 -33.7166
   -11.2328 -10.6427   1.8482   3.3862   3.7186   3.8431   4.2007   4.4230

     occupation numbers 
     1.0000   1.0000   1.0000   1.0000   1.0000   1.0000   1.0000   1.0000
     1.0000   1.0000   1.0000   1.0000   1.0000   1.0000   1.0000   1.0000

          k = 0.1250 0.0722-0.0850 (  3821 PWs)   bands (ev):

   -66.7555 -66.7511 -33.7774 -33.7333 -33.7277 -33.7254 -33.7184 -33.7154
   -11.3196 -10.5482   1.6522   3.5134   3.7665   3.7914   4.2588   4.6526

     occupation numbers 
     1.0000   1.0000   1.0000   1.0000   1.0000   1.0000   1.0000   1.0000
     1.0000   1.0000   1.0000   1.0000   1.0000   1.0000   1.0000   1.0000

          k = 0.1250 0.2165-0.0000 (  3821 PWs)   bands (ev):

   -66.7550 -66.7509 -33.7753 -33.7338 -33.7334 -33.7296 -33.7239 -33.7164
   -11.2030 -10.4793   1.8651   2.9657   3.1837   3.7809   4.1941   4.6229

     occupation numbers 
     1.0000   1.0000   1.0000   1.0000   1.0000   1.0000   1.0000   1.0000
     1.0000   1.0000   1.0000   1.0000   1.0000   1.0000   1.0000   1.0000

          k = 0.1250 0.2165 0.0850 (  3826 PWs)   bands (ev):

   -66.7549 -66.7511 -33.7742 -33.7370 -33.7326 -33.7288 -33.7230 -33.7169
   -11.1761 -10.5075   1.8813   2.9238   3.2582   3.7485   4.1660   4.5913

     occupation numbers 
     1.0000   1.0000   1.0000   1.0000   1.0000   1.0000   1.0000   1.0000
     1.0000   1.0000   1.0000   1.0000   1.0000   1.0000   1.0000   1.0000

          k = 0.1250 0.2165 0.1700 (  3831 PWs)   bands (ev):

   -66.7544 -66.7515 -33.7709 -33.7435 -33.7306 -33.7273 -33.7221 -33.7182
   -11.0992 -10.5873   1.9450   2.7800   3.4560   3.7130   4.0889   4.4837

     occupation numbers 
     1.0000   1.0000   1.0000   1.0000   1.0000   1.0000   1.0000   1.0000
     1.0000   1.0000   1.0000   1.0000   1.0000   1.0000   1.0000   1.0000

          k = 0.1250 0.2165 0.2550 (  3835 PWs)   bands (ev):

   -66.7538 -66.7522 -33.7656 -33.7511 -33.7279 -33.7256 -33.7224 -33.7201
   -10.9833 -10.7062   2.0803   2.5448   3.7163   3.7449   3.9876   4.2930

     occupation numbers 
     1.0000   1.0000   1.0000   1.0000   1.0000   1.0000   1.0000   1.0000
     1.0000   1.0000   1.0000   1.0000   1.0000   1.0000   1.0000   1.0000

          k = 0.1250 0.2165-0.3400 (  3828 PWs)   bands (ev):

   -66.7530 -66.7530 -33.7588 -33.7588 -33.7255 -33.7255 -33.7221 -33.7221
   -10.8455 -10.8452   2.2901   2.2901   3.8246   3.8248   4.0485   4.0486

     occupation numbers 
     1.0000   1.0000   1.0000   1.0000   1.0000   1.0000   1.0000   1.0000
     1.0000   1.0000   1.0000   1.0000   1.0000   1.0000   1.0000   1.0000

          k = 0.1250 0.2165-0.2550 (  3835 PWs)   bands (ev):

   -66.7538 -66.7522 -33.7656 -33.7511 -33.7279 -33.7256 -33.7224 -33.7201
   -10.9833 -10.7062   2.0803   2.5449   3.7164   3.7449   3.9876   4.2930

     occupation numbers 
     1.0000   1.0000   1.0000   1.0000   1.0000   1.0000   1.0000   1.0000
     1.0000   1.0000   1.0000   1.0000   1.0000   1.0000   1.0000   1.0000

          k = 0.1250 0.2165-0.1700 (  3831 PWs)   bands (ev):

   -66.7544 -66.7515 -33.7709 -33.7435 -33.7306 -33.7273 -33.7221 -33.7182
   -11.0992 -10.5873   1.9450   2.7800   3.4560   3.7130   4.0889   4.4837

     occupation numbers 
     1.0000   1.0000   1.0000   1.0000   1.0000   1.0000   1.0000   1.0000
     1.0000   1.0000   1.0000   1.0000   1.0000   1.0000   1.0000   1.0000

          k = 0.1250 0.2165-0.0850 (  3826 PWs)   bands (ev):

   -66.7549 -66.7511 -33.7742 -33.7370 -33.7326 -33.7288 -33.7230 -33.7169
   -11.1761 -10.5075   1.8813   2.9238   3.2582   3.7485   4.1660   4.5913

     occupation numbers 
     1.0000   1.0000   1.0000   1.0000   1.0000   1.0000   1.0000   1.0000
     1.0000   1.0000   1.0000   1.0000   1.0000   1.0000   1.0000   1.0000

          k = 0.1250 0.3608-0.0000 (  3824 PWs)   bands (ev):

   -66.7539 -66.7510 -33.7689 -33.7411 -33.7395 -33.7353 -33.7298 -33.7186
   -10.9683 -10.4497   2.1874   2.3623   2.8387   3.4761   4.0937   4.3399

     occupation numbers 
     1.0000   1.0000   1.0000   1.0000   1.0000   1.0000   1.0000   1.0000
     1.0000   1.0000   1.0000   1.0000   1.0000   1.0000   1.0000   1.0000

          k = 0.1250 0.3608 0.0850 (  3834 PWs)   bands (ev):

   -66.7538 -66.7511 -33.7689 -33.7442 -33.7392 -33.7334 -33.7284 -33.7191
   -10.9478 -10.4684   2.0648   2.3435   3.0074   3.4442   4.0482   4.3857

     occupation numbers 
     1.0000   1.0000   1.0000   1.0000   1.0000   1.0000   1.0000   1.0000
     1.0000   1.0000   1.0000   1.0000   1.0000   1.0000   1.0000   1.0000

          k = 0.1250 0.3608 0.1700 (  3834 PWs)   bands (ev):

   -66.7535 -66.7514 -33.7684 -33.7508 -33.7359 -33.7314 -33.7263 -33.7205
   -10.8898 -10.5224   1.9144   2.2288   3.2897   3.4854   3.9355   4.4277

     occupation numbers 
     1.0000   1.0000   1.0000   1.0000   1.0000   1.0000   1.0000   1.0000
     1.0000   1.0000   1.0000   1.0000   1.0000   1.0000   1.0000   1.0000

          k = 0.1250 0.3608 0.2550 (  3841 PWs)   bands (ev):

   -66.7530 -66.7519 -33.7666 -33.7574 -33.7322 -33.7294 -33.7255 -33.7225
   -10.8036 -10.6046   1.8590   2.0586   3.4220   3.6910   3.8785   4.3566

     occupation numbers 
     1.0000   1.0000   1.0000   1.0000   1.0000   1.0000   1.0000   1.0000
     1.0000   1.0000   1.0000   1.0000   1.0000   1.0000   1.0000   1.0000

          k = 0.1250 0.3608-0.3400 (  3838 PWs)   bands (ev):

   -66.7525 -66.7525 -33.7628 -33.7628 -33.7294 -33.7294 -33.7246 -33.7245
   -10.7034 -10.7031   1.9151   1.9152   3.5652   3.5654   4.1486   4.1486

     occupation numbers 
     1.0000   1.0000   1.0000   1.0000   1.0000   1.0000   1.0000   1.0000
     1.0000   1.0000   1.0000   1.0000   1.0000   1.0000   1.0000   1.0000

          k = 0.1250 0.3608-0.2550 (  3841 PWs)   bands (ev):

   -66.7530 -66.7519 -33.7666 -33.7574 -33.7322 -33.7294 -33.7255 -33.7225
   -10.8036 -10.6046   1.8590   2.0586   3.4220   3.6910   3.8785   4.3565

     occupation numbers 
     1.0000   1.0000   1.0000   1.0000   1.0000   1.0000   1.0000   1.0000
     1.0000   1.0000   1.0000   1.0000   1.0000   1.0000   1.0000   1.0000

          k = 0.1250 0.3608-0.1700 (  3834 PWs)   bands (ev):

   -66.7535 -66.7514 -33.7684 -33.7508 -33.7359 -33.7314 -33.7263 -33.7205
   -10.8898 -10.5224   1.9144   2.2288   3.2897   3.4854   3.9355   4.4277

     occupation numbers 
     1.0000   1.0000   1.0000   1.0000   1.0000   1.0000   1.0000   1.0000
     1.0000   1.0000   1.0000   1.0000   1.0000   1.0000   1.0000   1.0000

          k = 0.1250 0.3608-0.0850 (  3834 PWs)   bands (ev):

   -66.7538 -66.7511 -33.7689 -33.7442 -33.7392 -33.7334 -33.7284 -33.7191
   -10.9478 -10.4684   2.0648   2.3436   3.0074   3.4442   4.0482   4.3857

     occupation numbers 
     1.0000   1.0000   1.0000   1.0000   1.0000   1.0000   1.0000   1.0000
     1.0000   1.0000   1.0000   1.0000   1.0000   1.0000   1.0000   1.0000

          k = 0.1250 0.5052-0.0000 (  3847 PWs)   bands (ev):

   -66.7530 -66.7513 -33.7625 -33.7470 -33.7457 -33.7386 -33.7340 -33.7200
   -10.7562 -10.4697   1.7245   2.6394   2.9209   3.2065   3.9583   4.0371

     occupation numbers 
     1.0000   1.0000   1.0000   1.0000   1.0000   1.0000   1.0000   1.0000
     1.0000   1.0000   1.0000   1.0000   1.0000   1.0000   1.0000   1.0000

          k = 0.1250 0.5052 0.0850 (  3845 PWs)   bands (ev):

   -66.7529 -66.7513 -33.7641 -33.7506 -33.7439 -33.7357 -33.7330 -33.7206
   -10.7435 -10.4786   1.6826   2.4520   2.9896   3.3186   3.9418   4.1148

     occupation numbers 
     1.0000   1.0000   1.0000   1.0000   1.0000   1.0000   1.0000   1.0000
     1.0000   1.0000   1.0000   1.0000   1.0000   1.0000   1.0000   1.0000

          k = 0.1250 0.5052 0.1700 (  3842 PWs)   bands (ev):

   -66.7527 -66.7515 -33.7667 -33.7570 -33.7392 -33.7327 -33.7305 -33.7220
   -10.7080 -10.5049   1.6070   2.1435   3.0534   3.6241   3.8143   4.2856

     occupation numbers 
     1.0000   1.0000   1.0000   1.0000   1.0000   1.0000   1.0000   1.0000
     1.0000   1.0000   1.0000   1.0000   1.0000   1.0000   1.0000   1.0000

          k = 0.1250 0.5052 0.2550 (  3849 PWs)   bands (ev):

   -66.7524 -66.7518 -33.7677 -33.7626 -33.7348 -33.7307 -33.7284 -33.7240
   -10.6569 -10.5467   1.5835   1.8588   3.1882   3.5975   3.9789   4.3461

     occupation numbers 
     1.0000   1.0000   1.0000   1.0000   1.0000   1.0000   1.0000   1.0000
     1.0000   1.0000   1.0000   1.0000   1.0000   1.0000   1.0000   1.0000

          k = 0.1250 0.5052-0.3400 (  3842 PWs)   bands (ev):

   -66.7521 -66.7521 -33.7663 -33.7663 -33.7316 -33.7316 -33.7261 -33.7261
   -10.6000 -10.5998   1.6636   1.6637   3.3825   3.3827   4.2349   4.2349

     occupation numbers 
     1.0000   1.0000   1.0000   1.0000   1.0000   1.0000   1.0000   1.0000
     1.0000   1.0000   1.0000   1.0000   1.0000   1.0000   1.0000   1.0000

          k = 0.1250 0.5052-0.2550 (  3849 PWs)   bands (ev):

   -66.7524 -66.7518 -33.7677 -33.7626 -33.7348 -33.7307 -33.7284 -33.7240
   -10.6569 -10.5467   1.5834   1.8588   3.1882   3.5975   3.9789   4.3461

     occupation numbers 
     1.0000   1.0000   1.0000   1.0000   1.0000   1.0000   1.0000   1.0000
     1.0000   1.0000   1.0000   1.0000   1.0000   1.0000   1.0000   1.0000

          k = 0.1250 0.5052-0.1700 (  3842 PWs)   bands (ev):

   -66.7527 -66.7515 -33.7667 -33.7570 -33.7392 -33.7327 -33.7305 -33.7220
   -10.7080 -10.5049   1.6070   2.1435   3.0534   3.6241   3.8143   4.2856

     occupation numbers 
     1.0000   1.0000   1.0000   1.0000   1.0000   1.0000   1.0000   1.0000
     1.0000   1.0000   1.0000   1.0000   1.0000   1.0000   1.0000   1.0000

          k = 0.1250 0.5052-0.0850 (  3845 PWs)   bands (ev):

   -66.7529 -66.7513 -33.7641 -33.7506 -33.7439 -33.7357 -33.7330 -33.7206
   -10.7435 -10.4786   1.6826   2.4520   2.9896   3.3187   3.9418   4.1148

     occupation numbers 
     1.0000   1.0000   1.0000   1.0000   1.0000   1.0000   1.0000   1.0000
     1.0000   1.0000   1.0000   1.0000   1.0000   1.0000   1.0000   1.0000

          k = 0.1250-0.5052 0.0000 (  3847 PWs)   bands (ev):

   -66.7530 -66.7513 -33.7625 -33.7470 -33.7457 -33.7386 -33.7340 -33.7200
   -10.7562 -10.4697   1.7245   2.6394   2.9209   3.2065   3.9583   4.0371

     occupation numbers 
     1.0000   1.0000   1.0000   1.0000   1.0000   1.0000   1.0000   1.0000
     1.0000   1.0000   1.0000   1.0000   1.0000   1.0000   1.0000   1.0000

          k = 0.1250-0.5052 0.0850 (  3845 PWs)   bands (ev):

   -66.7529 -66.7513 -33.7641 -33.7506 -33.7439 -33.7357 -33.7330 -33.7206
   -10.7435 -10.4786   1.6826   2.4520   2.9896   3.3187   3.9418   4.1148

     occupation numbers 
     1.0000   1.0000   1.0000   1.0000   1.0000   1.0000   1.0000   1.0000
     1.0000   1.0000   1.0000   1.0000   1.0000   1.0000   1.0000   1.0000

          k = 0.1250-0.5052 0.1700 (  3842 PWs)   bands (ev):

   -66.7527 -66.7515 -33.7667 -33.7570 -33.7392 -33.7327 -33.7305 -33.7220
   -10.7080 -10.5049   1.6070   2.1435   3.0534   3.6241   3.8143   4.2856

     occupation numbers 
     1.0000   1.0000   1.0000   1.0000   1.0000   1.0000   1.0000   1.0000
     1.0000   1.0000   1.0000   1.0000   1.0000   1.0000   1.0000   1.0000

          k = 0.1250-0.5052 0.2550 (  3849 PWs)   bands (ev):

   -66.7524 -66.7518 -33.7677 -33.7626 -33.7348 -33.7307 -33.7284 -33.7240
   -10.6569 -10.5467   1.5834   1.8588   3.1882   3.5975   3.9789   4.3461

     occupation numbers 
     1.0000   1.0000   1.0000   1.0000   1.0000   1.0000   1.0000   1.0000
     1.0000   1.0000   1.0000   1.0000   1.0000   1.0000   1.0000   1.0000

          k = 0.1250-0.5052-0.3400 (  3842 PWs)   bands (ev):

   -66.7521 -66.7521 -33.7663 -33.7663 -33.7316 -33.7316 -33.7261 -33.7261
   -10.6000 -10.5998   1.6636   1.6637   3.3825   3.3827   4.2349   4.2349

     occupation numbers 
     1.0000   1.0000   1.0000   1.0000   1.0000   1.0000   1.0000   1.0000
     1.0000   1.0000   1.0000   1.0000   1.0000   1.0000   1.0000   1.0000

          k = 0.1250-0.5052-0.2550 (  3849 PWs)   bands (ev):

   -66.7524 -66.7518 -33.7677 -33.7626 -33.7348 -33.7307 -33.7284 -33.7240
   -10.6569 -10.5467   1.5835   1.8588   3.1882   3.5975   3.9789   4.3461

     occupation numbers 
     1.0000   1.0000   1.0000   1.0000   1.0000   1.0000   1.0000   1.0000
     1.0000   1.0000   1.0000   1.0000   1.0000   1.0000   1.0000   1.0000

          k = 0.1250-0.5052-0.1700 (  3842 PWs)   bands (ev):

   -66.7527 -66.7515 -33.7667 -33.7570 -33.7392 -33.7327 -33.7305 -33.7220
   -10.7080 -10.5049   1.6070   2.1435   3.0534   3.6241   3.8143   4.2856

     occupation numbers 
     1.0000   1.0000   1.0000   1.0000   1.0000   1.0000   1.0000   1.0000
     1.0000   1.0000   1.0000   1.0000   1.0000   1.0000   1.0000   1.0000

          k = 0.1250-0.5052-0.0850 (  3845 PWs)   bands (ev):

   -66.7529 -66.7513 -33.7641 -33.7506 -33.7439 -33.7357 -33.7330 -33.7206
   -10.7435 -10.4786   1.6826   2.4520   2.9896   3.3186   3.9418   4.1148

     occupation numbers 
     1.0000   1.0000   1.0000   1.0000   1.0000   1.0000   1.0000   1.0000
     1.0000   1.0000   1.0000   1.0000   1.0000   1.0000   1.0000   1.0000

          k = 0.1250-0.3608 0.0000 (  3824 PWs)   bands (ev):

   -66.7539 -66.7510 -33.7689 -33.7411 -33.7395 -33.7353 -33.7298 -33.7186
   -10.9683 -10.4497   2.1874   2.3623   2.8387   3.4761   4.0937   4.3399

     occupation numbers 
     1.0000   1.0000   1.0000   1.0000   1.0000   1.0000   1.0000   1.0000
     1.0000   1.0000   1.0000   1.0000   1.0000   1.0000   1.0000   1.0000

          k = 0.1250-0.3608 0.0850 (  3834 PWs)   bands (ev):

   -66.7538 -66.7511 -33.7689 -33.7442 -33.7392 -33.7334 -33.7284 -33.7191
   -10.9478 -10.4684   2.0648   2.3435   3.0074   3.4442   4.0482   4.3857

     occupation numbers 
     1.0000   1.0000   1.0000   1.0000   1.0000   1.0000   1.0000   1.0000
     1.0000   1.0000   1.0000   1.0000   1.0000   1.0000   1.0000   1.0000

          k = 0.1250-0.3608 0.1700 (  3834 PWs)   bands (ev):

   -66.7535 -66.7514 -33.7684 -33.7508 -33.7359 -33.7314 -33.7263 -33.7205
   -10.8898 -10.5224   1.9144   2.2288   3.2897   3.4854   3.9355   4.4277

     occupation numbers 
     1.0000   1.0000   1.0000   1.0000   1.0000   1.0000   1.0000   1.0000
     1.0000   1.0000   1.0000   1.0000   1.0000   1.0000   1.0000   1.0000

          k = 0.1250-0.3608 0.2550 (  3841 PWs)   bands (ev):

   -66.7530 -66.7519 -33.7666 -33.7574 -33.7322 -33.7294 -33.7255 -33.7225
   -10.8036 -10.6046   1.8590   2.0586   3.4220   3.6910   3.8785   4.3565

     occupation numbers 
     1.0000   1.0000   1.0000   1.0000   1.0000   1.0000   1.0000   1.0000
     1.0000   1.0000   1.0000   1.0000   1.0000   1.0000   1.0000   1.0000

          k = 0.1250-0.3608-0.3400 (  3838 PWs)   bands (ev):

   -66.7525 -66.7525 -33.7628 -33.7628 -33.7294 -33.7294 -33.7246 -33.7245
   -10.7034 -10.7031   1.9151   1.9152   3.5652   3.5654   4.1486   4.1486

[...]
     1.0000   1.0000   1.0000   1.0000   1.0000   1.0000   1.0000   1.0000

          k =-0.5000-0.1443 0.0850 (  3845 PWs)   bands (ev):

   -66.7529 -66.7513 -33.7641 -33.7506 -33.7439 -33.7357 -33.7330 -33.7206
   -10.7435 -10.4786   1.6826   2.4520   2.9896   3.3187   3.9418   4.1148

     occupation numbers 
     1.0000   1.0000   1.0000   1.0000   1.0000   1.0000   1.0000   1.0000
     1.0000   1.0000   1.0000   1.0000   1.0000   1.0000   1.0000   1.0000

          k =-0.5000-0.1443 0.1700 (  3842 PWs)   bands (ev):

   -66.7527 -66.7515 -33.7667 -33.7570 -33.7392 -33.7327 -33.7305 -33.7220
   -10.7080 -10.5049   1.6070   2.1435   3.0534   3.6241   3.8143   4.2856

     occupation numbers 
     1.0000   1.0000   1.0000   1.0000   1.0000   1.0000   1.0000   1.0000
     1.0000   1.0000   1.0000   1.0000   1.0000   1.0000   1.0000   1.0000

          k =-0.5000-0.1443 0.2550 (  3849 PWs)   bands (ev):

   -66.7524 -66.7518 -33.7677 -33.7626 -33.7348 -33.7307 -33.7284 -33.7240
   -10.6569 -10.5467   1.5835   1.8588   3.1882   3.5975   3.9789   4.3461

     occupation numbers 
     1.0000   1.0000   1.0000   1.0000   1.0000   1.0000   1.0000   1.0000
     1.0000   1.0000   1.0000   1.0000   1.0000   1.0000   1.0000   1.0000

          k =-0.5000-0.1443-0.3400 (  3842 PWs)   bands (ev):

   -66.7521 -66.7521 -33.7663 -33.7663 -33.7316 -33.7316 -33.7261 -33.7261
   -10.6000 -10.5998   1.6636   1.6637   3.3825   3.3827   4.2349   4.2349

     occupation numbers 
     1.0000   1.0000   1.0000   1.0000   1.0000   1.0000   1.0000   1.0000
     1.0000   1.0000   1.0000   1.0000   1.0000   1.0000   1.0000   1.0000

          k =-0.5000-0.1443-0.2550 (  3849 PWs)   bands (ev):

   -66.7524 -66.7518 -33.7677 -33.7626 -33.7348 -33.7307 -33.7284 -33.7240
   -10.6569 -10.5467   1.5835   1.8588   3.1882   3.5975   3.9789   4.3461

     occupation numbers 
     1.0000   1.0000   1.0000   1.0000   1.0000   1.0000   1.0000   1.0000
     1.0000   1.0000   1.0000   1.0000   1.0000   1.0000   1.0000   1.0000

          k =-0.5000-0.1443-0.1700 (  3842 PWs)   bands (ev):

   -66.7527 -66.7515 -33.7667 -33.7570 -33.7392 -33.7327 -33.7305 -33.7220
   -10.7080 -10.5049   1.6070   2.1435   3.0534   3.6241   3.8143   4.2856

     occupation numbers 
     1.0000   1.0000   1.0000   1.0000   1.0000   1.0000   1.0000   1.0000
     1.0000   1.0000   1.0000   1.0000   1.0000   1.0000   1.0000   1.0000

          k =-0.5000-0.1443-0.0850 (  3845 PWs)   bands (ev):

   -66.7529 -66.7513 -33.7641 -33.7506 -33.7439 -33.7357 -33.7330 -33.7206
   -10.7435 -10.4786   1.6826   2.4520   2.9896   3.3187   3.9418   4.1148

     occupation numbers 
     1.0000   1.0000   1.0000   1.0000   1.0000   1.0000   1.0000   1.0000
     1.0000   1.0000   1.0000   1.0000   1.0000   1.0000   1.0000   1.0000

          k =-0.5000 0.0000-0.0000 (  3883 PWs)   bands (ev):

   -66.7530 -66.7513 -33.7623 -33.7461 -33.7420 -33.7411 -33.7340 -33.7224
   -10.7624 -10.4650   1.9332   2.5853   2.9254   3.1716   3.7642   4.0110

     occupation numbers 
     1.0000   1.0000   1.0000   1.0000   1.0000   1.0000   1.0000   1.0000
     1.0000   1.0000   1.0000   1.0000   1.0000   1.0000   1.0000   1.0000

          k =-0.5000 0.0000 0.0850 (  3851 PWs)   bands (ev):

   -66.7529 -66.7513 -33.7636 -33.7501 -33.7399 -33.7393 -33.7320 -33.7229
   -10.7493 -10.4743   1.9386   2.3360   3.0595   3.2207   3.7116   4.1328

     occupation numbers 
     1.0000   1.0000   1.0000   1.0000   1.0000   1.0000   1.0000   1.0000
     1.0000   1.0000   1.0000   1.0000   1.0000   1.0000   1.0000   1.0000

          k =-0.5000-0.0000 0.1700 (  3841 PWs)   bands (ev):

   -66.7527 -66.7515 -33.7658 -33.7563 -33.7371 -33.7356 -33.7287 -33.7245
   -10.7127 -10.5019   1.9316   2.0604   2.9128   3.4678   3.7255   4.3221

     occupation numbers 
     1.0000   1.0000   1.0000   1.0000   1.0000   1.0000   1.0000   1.0000
     1.0000   1.0000   1.0000   1.0000   1.0000   1.0000   1.0000   1.0000

          k =-0.5000-0.0000 0.2550 (  3840 PWs)   bands (ev):

   -66.7524 -66.7518 -33.7667 -33.7618 -33.7344 -33.7319 -33.7268 -33.7265
   -10.6600 -10.5457   1.8848   1.8947   2.9142   3.2814   4.0636   4.4034

     occupation numbers 
     1.0000   1.0000   1.0000   1.0000   1.0000   1.0000   1.0000   1.0000
     1.0000   1.0000   1.0000   1.0000   1.0000   1.0000   1.0000   1.0000

          k =-0.5000 0.0000-0.3400 (  3852 PWs)   bands (ev):

   -66.7521 -66.7521 -33.7654 -33.7654 -33.7319 -33.7319 -33.7268 -33.7268
   -10.6011 -10.6008   1.8474   1.8475   3.0632   3.0634   4.3150   4.3150

     occupation numbers 
     1.0000   1.0000   1.0000   1.0000   1.0000   1.0000   1.0000   1.0000
     1.0000   1.0000   1.0000   1.0000   1.0000   1.0000   1.0000   1.0000

          k =-0.5000 0.0000-0.2550 (  3840 PWs)   bands (ev):

   -66.7524 -66.7518 -33.7667 -33.7618 -33.7344 -33.7319 -33.7268 -33.7265
   -10.6600 -10.5457   1.8848   1.8947   2.9142   3.2814   4.0636   4.4034

     occupation numbers 
     1.0000   1.0000   1.0000   1.0000   1.0000   1.0000   1.0000   1.0000
     1.0000   1.0000   1.0000   1.0000   1.0000   1.0000   1.0000   1.0000

          k =-0.5000 0.0000-0.1700 (  3841 PWs)   bands (ev):

   -66.7527 -66.7515 -33.7658 -33.7563 -33.7371 -33.7356 -33.7287 -33.7245
   -10.7127 -10.5019   1.9316   2.0604   2.9128   3.4678   3.7255   4.3221

     occupation numbers 
     1.0000   1.0000   1.0000   1.0000   1.0000   1.0000   1.0000   1.0000
     1.0000   1.0000   1.0000   1.0000   1.0000   1.0000   1.0000   1.0000

          k =-0.5000 0.0000-0.0850 (  3851 PWs)   bands (ev):

   -66.7529 -66.7513 -33.7636 -33.7501 -33.7399 -33.7393 -33.7320 -33.7229
   -10.7493 -10.4743   1.9386   2.3360   3.0595   3.2207   3.7116   4.1328

     occupation numbers 
     1.0000   1.0000   1.0000   1.0000   1.0000   1.0000   1.0000   1.0000
     1.0000   1.0000   1.0000   1.0000   1.0000   1.0000   1.0000   1.0000

          k =-0.5000 0.1443-0.0000 (  3847 PWs)   bands (ev):

   -66.7530 -66.7513 -33.7625 -33.7470 -33.7457 -33.7386 -33.7340 -33.7200
   -10.7562 -10.4697   1.7245   2.6394   2.9209   3.2065   3.9583   4.0371

     occupation numbers 
     1.0000   1.0000   1.0000   1.0000   1.0000   1.0000   1.0000   1.0000
     1.0000   1.0000   1.0000   1.0000   1.0000   1.0000   1.0000   1.0000

          k =-0.5000 0.1443 0.0850 (  3845 PWs)   bands (ev):

   -66.7529 -66.7513 -33.7641 -33.7506 -33.7439 -33.7357 -33.7330 -33.7206
   -10.7435 -10.4786   1.6826   2.4520   2.9896   3.3187   3.9418   4.1148

     occupation numbers 
     1.0000   1.0000   1.0000   1.0000   1.0000   1.0000   1.0000   1.0000
     1.0000   1.0000   1.0000   1.0000   1.0000   1.0000   1.0000   1.0000

          k =-0.5000 0.1443 0.1700 (  3842 PWs)   bands (ev):

   -66.7527 -66.7515 -33.7667 -33.7570 -33.7392 -33.7327 -33.7305 -33.7220
   -10.7080 -10.5049   1.6070   2.1435   3.0534   3.6241   3.8143   4.2856

     occupation numbers 
     1.0000   1.0000   1.0000   1.0000   1.0000   1.0000   1.0000   1.0000
     1.0000   1.0000   1.0000   1.0000   1.0000   1.0000   1.0000   1.0000

          k =-0.5000 0.1443 0.2550 (  3849 PWs)   bands (ev):

   -66.7524 -66.7518 -33.7677 -33.7626 -33.7348 -33.7307 -33.7284 -33.7240
   -10.6569 -10.5467   1.5834   1.8588   3.1882   3.5975   3.9789   4.3461

     occupation numbers 
     1.0000   1.0000   1.0000   1.0000   1.0000   1.0000   1.0000   1.0000
     1.0000   1.0000   1.0000   1.0000   1.0000   1.0000   1.0000   1.0000

          k =-0.5000 0.1443-0.3400 (  3842 PWs)   bands (ev):

   -66.7521 -66.7521 -33.7663 -33.7663 -33.7316 -33.7316 -33.7261 -33.7261
   -10.6000 -10.5998   1.6636   1.6637   3.3825   3.3827   4.2349   4.2349

     occupation numbers 
     1.0000   1.0000   1.0000   1.0000   1.0000   1.0000   1.0000   1.0000
     1.0000   1.0000   1.0000   1.0000   1.0000   1.0000   1.0000   1.0000

          k =-0.5000 0.1443-0.2550 (  3849 PWs)   bands (ev):

   -66.7524 -66.7518 -33.7677 -33.7626 -33.7348 -33.7307 -33.7284 -33.7240
   -10.6569 -10.5467   1.5835   1.8588   3.1882   3.5975   3.9789   4.3461

     occupation numbers 
     1.0000   1.0000   1.0000   1.0000   1.0000   1.0000   1.0000   1.0000
     1.0000   1.0000   1.0000   1.0000   1.0000   1.0000   1.0000   1.0000

          k =-0.5000 0.1443-0.1700 (  3842 PWs)   bands (ev):

   -66.7527 -66.7515 -33.7667 -33.7570 -33.7392 -33.7327 -33.7305 -33.7220
   -10.7080 -10.5049   1.6070   2.1435   3.0534   3.6241   3.8143   4.2856

     occupation numbers 
     1.0000   1.0000   1.0000   1.0000   1.0000   1.0000   1.0000   1.0000
     1.0000   1.0000   1.0000   1.0000   1.0000   1.0000   1.0000   1.0000

          k =-0.5000 0.1443-0.0850 (  3845 PWs)   bands (ev):

   -66.7529 -66.7513 -33.7641 -33.7506 -33.7439 -33.7357 -33.7330 -33.7206
   -10.7435 -10.4786   1.6826   2.4520   2.9896   3.3187   3.9418   4.1148

     occupation numbers 
     1.0000   1.0000   1.0000   1.0000   1.0000   1.0000   1.0000   1.0000
     1.0000   1.0000   1.0000   1.0000   1.0000   1.0000   1.0000   1.0000

          k =-0.5000-0.8660 0.0000 (  3824 PWs)   bands (ev):

   -66.7530 -66.7513 -33.7627 -33.7484 -33.7467 -33.7391 -33.7327 -33.7182
   -10.7499 -10.4746   1.5801   2.5653   2.9509   3.3429   3.9152   4.2313

     occupation numbers 
     1.0000   1.0000   1.0000   1.0000   1.0000   1.0000   1.0000   1.0000
     1.0000   1.0000   1.0000   1.0000   1.0000   1.0000   1.0000   1.0000

          k =-0.5000-0.8660 0.0850 (  3834 PWs)   bands (ev):

   -66.7529 -66.7513 -33.7647 -33.7511 -33.7455 -33.7358 -33.7321 -33.7187
   -10.7375 -10.4830   1.5276   2.3995   3.0810   3.3726   4.0295   4.1925

     occupation numbers 
     1.0000   1.0000   1.0000   1.0000   1.0000   1.0000   1.0000   1.0000
     1.0000   1.0000   1.0000   1.0000   1.0000   1.0000   1.0000   1.0000

          k =-0.5000-0.8660 0.1700 (  3834 PWs)   bands (ev):

   -66.7527 -66.7515 -33.7675 -33.7576 -33.7400 -33.7320 -33.7306 -33.7203
   -10.7031 -10.5080   1.4429   2.0656   3.3902   3.4588   4.0847   4.1967

     occupation numbers 
     1.0000   1.0000   1.0000   1.0000   1.0000   1.0000   1.0000   1.0000
     1.0000   1.0000   1.0000   1.0000   1.0000   1.0000   1.0000   1.0000

          k =-0.5000-0.8660 0.2550 (  3838 PWs)   bands (ev):

   -66.7524 -66.7518 -33.7686 -33.7634 -33.7348 -33.7304 -33.7282 -33.7227
   -10.6537 -10.5479   1.4260   1.7475   3.5920   3.7500   3.9300   4.2218

     occupation numbers 
     1.0000   1.0000   1.0000   1.0000   1.0000   1.0000   1.0000   1.0000
     1.0000   1.0000   1.0000   1.0000   1.0000   1.0000   1.0000   1.0000

          k =-0.5000-0.8660-0.3400 (  3824 PWs)   bands (ev):

   -66.7521 -66.7521 -33.7672 -33.7672 -33.7314 -33.7314 -33.7254 -33.7254
   -10.5990 -10.5987   1.5250   1.5251   3.7565   3.7567   4.0566   4.0567

     occupation numbers 
     1.0000   1.0000   1.0000   1.0000   1.0000   1.0000   1.0000   1.0000
     1.0000   1.0000   1.0000   1.0000   1.0000   1.0000   1.0000   1.0000

     highest occupied level (ev):     4.8265

!    total energy              =    -315.17907045 Ry
     Harris-Foulkes estimate   =    -315.17906969 Ry
     estimated scf accuracy    <       0.00000086 Ry

     The total energy is the sum of the following terms:

     one-electron contribution =    -212.25719081 Ry
     hartree contribution      =     112.44109261 Ry
     xc contribution           =     -48.06158761 Ry
     ewald contribution        =    -167.30138464 Ry

     convergence has been achieved in   6 iterations

     Forces acting on atoms (cartesian axes, Ry/au):

     atom    1 type  2   force =    -0.00000052    0.00000191    0.00111510
     atom    2 type  2   force =     0.00000041    0.00000259    0.00111483
     atom    3 type  1   force =    -0.00000258   -0.00000529   -0.00112470
     atom    4 type  1   force =     0.00000268    0.00000079   -0.00110523
     The non-local contrib.  to forces
     atom    1 type  2   force =    -0.00000064   -0.00000083    0.05723274
     atom    2 type  2   force =     0.00000051    0.00000251    0.05723749
     atom    3 type  1   force =     0.00000113   -0.00000217    0.09960030
     atom    4 type  1   force =     0.00000086   -0.00000058    0.09960399
     The ionic contribution  to forces
     atom    1 type  2   force =    -0.00000679    0.00001745   -0.64548795
     atom    2 type  2   force =    -0.00000306    0.00000098   -0.64548903
     atom    3 type  1   force =     0.00000355   -0.00001339    0.64548870
     atom    4 type  1   force =     0.00000630   -0.00000505    0.64548828
     The local contribution  to forces
     atom    1 type  2   force =     0.00000819   -0.00001525    0.58923245
     atom    2 type  2   force =    -0.00000015   -0.00000311    0.58923986
     atom    3 type  1   force =    -0.00000222    0.00001751   -0.74573035
     atom    4 type  1   force =    -0.00000780    0.00000356   -0.74577815
     The core correction contribution to forces
     atom    1 type  2   force =     0.00000001    0.00000000   -0.00015869
     atom    2 type  2   force =    -0.00000001   -0.00000001   -0.00015873
     atom    3 type  1   force =     0.00000000    0.00000000    0.00000000
     atom    4 type  1   force =     0.00000000    0.00000000    0.00000000
     The Hubbard contrib.    to forces
     atom    1 type  2   force =     0.00000000    0.00000000    0.00000000
     atom    2 type  2   force =     0.00000000    0.00000000    0.00000000
     atom    3 type  1   force =     0.00000000    0.00000000    0.00000000
     atom    4 type  1   force =     0.00000000    0.00000000    0.00000000
     The SCF correction term to forces
     atom    1 type  2   force =     0.00000000    0.00000000    0.00000000
     atom    2 type  2   force =     0.00000000    0.00000000    0.00000000
     atom    3 type  1   force =     0.00000000    0.00000000    0.00000000
     atom    4 type  1   force =     0.00000000    0.00000000    0.00000000

     Total force =     0.000000     Total SCF correction =     0.000000


     Computing stress (Cartesian axis) and pressure

          total   stress  (Ry/bohr**3)                   (kbar)     P=    5.27
   0.00003639   0.00000001  -0.00000000          5.35      0.00     -0.00
   0.00000001   0.00003639  -0.00000001          0.00      5.35     -0.00
  -0.00000000  -0.00000001   0.00003462         -0.00     -0.00      5.09

     kinetic stress (kbar)  19128.07      0.00      0.00
                                0.00  19128.07     -0.00
                                0.00     -0.00  19171.99

     local   stress (kbar)  -8153.66     -0.02      0.01
                               -0.02  -8153.68     -0.04
                                0.01     -0.04 -10279.01

     nonloc. stress (kbar)   5256.24     -0.00      0.00
                               -0.00   5256.24      0.00
                                0.00      0.00   5223.11

     hartree stress (kbar)  16970.84      0.01     -0.01
                                0.01  16970.85      0.02
                               -0.01      0.02  18136.58

     exc-cor stress (kbar)  -6799.48      0.00     -0.00
                                0.00  -6799.48      0.00
                               -0.00      0.00  -6801.63

     corecor stress (kbar)   -250.61      0.00     -0.00
                                0.00   -250.61     -0.00
                               -0.00     -0.00   -250.64

     ewald   stress (kbar) -26146.05      0.01     -0.01
                                0.01 -26146.03      0.03
                               -0.01      0.03 -25195.30

     hubbard stress (kbar)      0.00      0.00      0.00
                                0.00      0.00      0.00
                                0.00      0.00      0.00

     london  stress (kbar)      0.00      0.00      0.00
                                0.00      0.00      0.00
                                0.00      0.00      0.00

     DFT-D3  stress (kbar)      0.00      0.00      0.00
                                0.00      0.00      0.00
                                0.00      0.00      0.00

     XDM     stress (kbar)      0.00      0.00      0.00
                                0.00      0.00      0.00
                                0.00      0.00      0.00

     dft-nl  stress (kbar)      0.00      0.00      0.00
                                0.00      0.00      0.00
                                0.00      0.00      0.00

     TS-vdW  stress (kbar)      0.00      0.00      0.00
                                0.00      0.00      0.00
                                0.00      0.00      0.00



     Writing output data file ZnO.save/
 
     init_run     :      0.41s CPU      0.62s WALL (       1 calls)
     electrons    :      3.81s CPU      4.13s WALL (       1 calls)
     forces       :      0.13s CPU      0.14s WALL (       1 calls)
     stress       :      0.24s CPU      0.25s WALL (       1 calls)

     Called by init_run:
     wfcinit      :      0.28s CPU      0.36s WALL (       1 calls)
     wfcinit:atom :      0.00s CPU      0.00s WALL (      65 calls)
     wfcinit:wfcr :      0.26s CPU      0.34s WALL (      65 calls)
     potinit      :      0.05s CPU      0.08s WALL (       1 calls)
     hinit0       :      0.06s CPU      0.13s WALL (       1 calls)

     Called by electrons:
     c_bands      :      3.12s CPU      3.38s WALL (       6 calls)
     sum_band     :      0.47s CPU      0.49s WALL (       6 calls)
     v_of_rho     :      0.19s CPU      0.21s WALL (       7 calls)
     v_h          :      0.00s CPU      0.00s WALL (       7 calls)
     v_xc         :      0.24s CPU      0.25s WALL (       9 calls)
     newd         :      0.03s CPU      0.05s WALL (       7 calls)
     mix_rho      :      0.00s CPU      0.01s WALL (       6 calls)

     Called by c_bands:
     init_us_2    :      0.07s CPU      0.07s WALL (     975 calls)
     cegterg      :      2.80s CPU      2.95s WALL (     390 calls)

     Called by sum_band:
     sum_band:bec :      0.00s CPU      0.01s WALL (     390 calls)
     addusdens    :      0.03s CPU      0.03s WALL (       6 calls)

     Called by *egterg:
     h_psi        :      1.79s CPU      1.86s WALL (    1301 calls)
     s_psi        :      0.07s CPU      0.07s WALL (    1301 calls)
     g_psi        :      0.00s CPU      0.00s WALL (     846 calls)
     cdiaghg      :      0.73s CPU      0.85s WALL (    1236 calls)
     cegterg:over :      0.22s CPU      0.25s WALL (     846 calls)
     cegterg:upda :      0.10s CPU      0.10s WALL (     846 calls)
     cegterg:last :      0.05s CPU      0.05s WALL (     390 calls)
     cdiaghg:chol :      0.09s CPU      0.12s WALL (    1236 calls)
     cdiaghg:inve :      0.01s CPU      0.02s WALL (    1236 calls)
     cdiaghg:para :      0.07s CPU      0.08s WALL (    2472 calls)

     Called by h_psi:
     h_psi:pot    :      1.78s CPU      1.85s WALL (    1301 calls)
     h_psi:calbec :      0.12s CPU      0.13s WALL (    1301 calls)
     vloc_psi     :      1.59s CPU      1.65s WALL (    1301 calls)
     add_vuspsi   :      0.07s CPU      0.07s WALL (    1301 calls)

     General routines
     calbec       :      0.19s CPU      0.20s WALL (    2016 calls)
     fft          :      0.03s CPU      0.07s WALL (     114 calls)
     ffts         :      0.00s CPU      0.00s WALL (      13 calls)
     fftw         :      1.83s CPU      1.89s WALL (   38542 calls)
     interpolate  :      0.00s CPU      0.01s WALL (       7 calls)
 
     Parallel routines
     fft_scatt_xy :      0.26s CPU      0.27s WALL (   38669 calls)
     fft_scatt_yz :      0.96s CPU      1.00s WALL (   38669 calls)
 
     PWSCF        :      4.80s CPU      6.46s WALL

 
   This run was terminated on:  16:18:52  16Jun2022            

=------------------------------------------------------------------------------=
   JOB DONE.
=------------------------------------------------------------------------------=
