
     Program PWSCF v.6.4.1 starts on 15Jul2022 at  2:10:30 

     This program is part of the open-source Quantum ESPRESSO suite
     for quantum simulation of materials; please cite
         "P. Giannozzi et al., J. Phys.:Condens. Matter 21 395502 (2009);
         "P. Giannozzi et al., J. Phys.:Condens. Matter 29 465901 (2017);
          URL http://www.quantum-espresso.org", 
     in publications or presentations arising from this work. More details at
     http://www.quantum-espresso.org/quote

     Parallel version (MPI), running on   128 processors

     MPI processes distributed on     2 nodes
     R & G space division:  proc/nbgrp/npool/nimage =     128
     Waiting for input...
     Reading input from standard input
Warning: card &IONS ignored
Warning: card   UPSCALE           = 100.D0, ignored
Warning: card / ignored
Warning: card &CELL ignored
Warning: card   CELL_DYNAMICS     = 'BFGS' ignored
Warning: card   PRESS_CONV_THR    = 0.5D0 ignored
Warning: card   CELL_DOFREE = 'ALL' ignored
Warning: card / ignored

     Current dimensions of program PWSCF are:
     Max number of different atomic species (ntypx) = 10
     Max number of k-points (npk) =  40000
     Max angular momentum in pseudopotentials (lmaxx) =  3

     Atomic positions and unit cell read from directory:
     ./temp/ZnO.save/
 

     Subspace diagonalization in iterative solution of the eigenvalue problem:
     one sub-group per band group will be used
     scalapack distributed-memory algorithm (size of sub-group:  8*  8 procs)

 
     Parallelization info
     --------------------
     sticks:   dense  smooth     PW     G-vecs:    dense   smooth      PW
     Min          91      43     12                 8534     2834     420
     Max          92      44     13                 8542     2843     427
     Sum       11705    5623   1573              1092783   363529   54049
 


     bravais-lattice index     =            0
     lattice parameter (alat)  =      18.4233  a.u.
     unit-cell volume          =    5787.7351 (a.u.)^3
     number of atoms/cell      =           72
     number of atomic types    =            3
     number of electrons       =       796.00
     number of Kohn-Sham states=          398
     kinetic-energy cutoff     =      60.0000  Ry
     charge density cutoff     =     500.0000  Ry
     Exchange-correlation      = SLA  PW   PSX  PSC ( 1  4 10  8 0 0)
     Using LIBXC version       =    4   3   4

     celldm(1)=  18.423338  celldm(2)=   0.000000  celldm(3)=   0.000000
     celldm(4)=   0.000000  celldm(5)=   0.000000  celldm(6)=   0.000000

     crystal axes: (cart. coord. in units of alat)
               a(1) = (   1.000000   0.000410  -0.000414 )  
               a(2) = (  -0.499644   0.866141   0.000428 )  
               a(3) = (  -0.000442   0.000273   1.068347 )  

     reciprocal axes: (cart. coord. in units 2 pi/alat)
               b(1) = (  0.999764  0.576725  0.000266 )  
               b(2) = ( -0.000473  1.154273 -0.000295 )  
               b(3) = (  0.000387 -0.000239  0.936026 )  


     PseudoPot. # 1 for Zn read from file:
     ./GBRV_PBEsol/zn_pbesol_v1.uspp.F.UPF
     MD5 check sum: 7d8615e52efe7c1e2b1899de8658bae2
     Pseudo is Ultrasoft, Zval = 20.0
     Generated by new atomic code, or converted to UPF format
     Using radial grid of  943 points,  6 beta functions with: 
                l(1) =   0
                l(2) =   0
                l(3) =   1
                l(4) =   1
                l(5) =   2
                l(6) =   2
     Q(r) pseudized with  8 coefficients,  rinner =    1.100   1.100   1.100
                                                       1.100   1.100

     PseudoPot. # 2 for O  read from file:
     ./GBRV_PBEsol/o_pbesol_v1.2.uspp.F.UPF
     MD5 check sum: 501638753501ef6325af9037351f7734
     Pseudo is Ultrasoft + core correction, Zval =  6.0
     Generated by new atomic code, or converted to UPF format
     Using radial grid of  737 points,  5 beta functions with: 
                l(1) =   0
                l(2) =   0
                l(3) =   1
                l(4) =   1
                l(5) =   2
     Q(r) pseudized with  8 coefficients,  rinner =    0.900   0.900   0.900
                                                       0.900   0.900

     PseudoPot. # 3 for Mg read from file:
     ./GBRV_PBEsol/mg_pbesol_v1.4.uspp.F.UPF
     MD5 check sum: 4059f37963cf5867752dbf5ab2400678
     Pseudo is Ultrasoft, Zval = 10.0
     Generated by new atomic code, or converted to UPF format
     Using radial grid of  821 points,  7 beta functions with: 
                l(1) =   0
                l(2) =   0
                l(3) =   0
                l(4) =   1
                l(5) =   1
                l(6) =   2
                l(7) =   2
     Q(r) pseudized with  8 coefficients,  rinner =    1.200   1.200   1.200
                                                       1.200   1.200

     atomic species   valence    mass     pseudopotential
        Zn            20.00    65.38000     Zn( 1.00)
        O              6.00    15.99900     O ( 1.00)
        Mg            10.00    24.30500     Mg( 1.00)

     No symmetry found


                                    s                        frac. trans.

      isym =  1     identity                                     

 cryst.   s( 1) = (     1          0          0      )
                  (     0          1          0      )
                  (     0          0          1      )

 cart.    s( 1) = (  1.0000000 -0.0000000 -0.0000000 )
                  ( -0.0000000  1.0000000  0.0000000 )
                  ( -0.0000000  0.0000000  1.0000000 )


   Cartesian axes

     site n.     atom                  positions (alat units)
         1           Zn  tau(   1) = (   0.1664033   0.0971534   0.2074504  )
         2           Zn  tau(   2) = (   0.1675617   0.0961215   0.7421169  )
         3           Zn  tau(   3) = (   0.0018160   0.3861996   0.2080107  )
         4           Zn  tau(   4) = (  -0.0009226   0.3854137   0.7414714  )
         5           Zn  tau(   5) = (  -0.1663309   0.6732888   0.2058321  )
         6           Mg  tau(   6) = (  -0.1655893   0.6764521   0.7426972  )
         7           Zn  tau(   7) = (   0.5008432   0.0965287   0.2072770  )
         8           Zn  tau(   8) = (   0.4994883   0.0972730   0.7418602  )
         9           Mg  tau(   9) = (   0.3329964   0.3859101   0.2072233  )
        10           Mg  tau(  10) = (   0.3333652   0.3850578   0.7408900  )
        11           Mg  tau(  11) = (   0.1650979   0.6728375   0.2082183  )
        12           Zn  tau(  12) = (   0.1670589   0.6753664   0.7384216  )
        13           Mg  tau(  13) = (   0.8338560   0.0980427   0.2049783  )
        14           Mg  tau(  14) = (   0.8343382   0.0965482   0.7399881  )
        15           Zn  tau(  15) = (   0.6668575   0.3855414   0.2049692  )
        16           Mg  tau(  16) = (   0.6658889   0.3867311   0.7438595  )
        17           Zn  tau(  17) = (   0.4980185   0.6739501   0.2076116  )
        18           Zn  tau(  18) = (   0.5014248   0.6742569   0.7412584  )
        19           Zn  tau(  19) = (  -0.0017297   0.1928934   0.4752004  )
        20           Zn  tau(  20) = (   0.0003513   0.1922969   1.0085262  )
        21           Mg  tau(  21) = (  -0.1688032   0.4818658   0.4743832  )
        22           Zn  tau(  22) = (  -0.1651273   0.4811745   1.0072320  )
        23           Zn  tau(  23) = (  -0.3317546   0.7696426   0.4740001  )
        24           Mg  tau(  24) = (  -0.3350053   0.7694332   1.0113363  )
        25           Zn  tau(  25) = (   0.3327916   0.1920759   0.4733664  )
        26           Mg  tau(  26) = (   0.3330357   0.1923841   1.0092652  )
        27           Mg  tau(  27) = (   0.1653224   0.4794879   0.4753453  )
        28           Zn  tau(  28) = (   0.1661671   0.4824119   1.0064618  )
        29           Zn  tau(  29) = (  -0.0017621   0.7704629   0.4749557  )
        30           Zn  tau(  30) = (   0.0020489   0.7695096   1.0089897  )
        31           Mg  tau(  31) = (   0.6647143   0.1943524   0.4741515  )
        32           Zn  tau(  32) = (   0.6672329   0.1914446   1.0061600  )
        33           Zn  tau(  33) = (   0.5018435   0.4803289   0.4748516  )
        34           Zn  tau(  34) = (   0.4981500   0.4827060   1.0083915  )
        35           Mg  tau(  35) = (   0.3351040   0.7707838   0.4735178  )
        36           Mg  tau(  36) = (   0.3318389   0.7680326   1.0066193  )
        37           O   tau(  37) = (   0.1673383   0.0955881   0.0036093  )
        38           O   tau(  38) = (   0.1658753   0.0962407   0.5377699  )
        39           O   tau(  39) = (   0.0008858   0.3846058   0.0037415  )
        40           O   tau(  40) = (  -0.0019540   0.3856265   0.5372959  )
        41           O   tau(  41) = (  -0.1660982   0.6737703   0.0018898  )
        42           O   tau(  42) = (  -0.1666928   0.6732746   0.5397857  )
        43           O   tau(  43) = (   0.5007140   0.0962251   0.0031672  )
        44           O   tau(  44) = (   0.4992645   0.0966320   0.5376134  )
        45           O   tau(  45) = (   0.3328102   0.3844455   0.0036513  )
        46           O   tau(  46) = (   0.3330497   0.3850568   0.5375245  )
        47           O   tau(  47) = (   0.1674226   0.6729406   0.0052750  )
        48           O   tau(  48) = (   0.1674950   0.6735703   0.5342131  )
        49           O   tau(  49) = (   0.8339236   0.0944204   0.0015393  )
        50           O   tau(  50) = (   0.8312297   0.0965004   0.5366392  )
        51           O   tau(  51) = (   0.6670741   0.3849037   0.0007252  )
        52           O   tau(  52) = (   0.6672390   0.3850282   0.5403724  )
        53           O   tau(  53) = (   0.4989220   0.6741030   0.0036099  )
        54           O   tau(  54) = (   0.5009279   0.6739029   0.5370680  )
        55           O   tau(  55) = (  -0.0002362   0.1931389   0.2707461  )
        56           O   tau(  56) = (   0.0001953   0.1928572   0.8045000  )
        57           O   tau(  57) = (  -0.1666284   0.4811885   0.2710629  )
        58           O   tau(  58) = (  -0.1671314   0.4832568   0.8033318  )
        59           O   tau(  59) = (  -0.3336055   0.7696588   0.2696235  )
        60           O   tau(  60) = (  -0.3326619   0.7702485   0.8078736  )
        61           O   tau(  61) = (   0.3336769   0.1932804   0.2691055  )
        62           O   tau(  62) = (   0.3333645   0.1936198   0.8063539  )
        63           O   tau(  63) = (   0.1677767   0.4817556   0.2725623  )
        64           O   tau(  64) = (   0.1666910   0.4821888   0.8022623  )
        65           O   tau(  65) = (  -0.0006708   0.7701406   0.2707927  )
        66           O   tau(  66) = (   0.0013871   0.7710558   0.8050828  )
        67           O   tau(  67) = (   0.6674810   0.1933058   0.2708964  )
        68           O   tau(  68) = (   0.6677322   0.1933457   0.8020808  )
        69           O   tau(  69) = (   0.5001737   0.4812241   0.2704057  )
        70           O   tau(  70) = (   0.4989232   0.4816925   0.8045739  )
        71           O   tau(  71) = (   0.3313963   0.7716667   0.2698152  )
        72           O   tau(  72) = (   0.3338912   0.7707176   0.8034779  )

   Crystallographic axes

     site n.     atom                  positions (cryst. coord.)
         1           Zn  tau(   1) = (  0.2224500  0.1120016  0.1942201  )
         2           Zn  tau(   2) = (  0.2231553  0.1106525  0.6946823  )
         3           Zn  tau(   3) = (  0.2246019  0.4457176  0.1946118  )
         4           Zn  tau(   4) = (  0.2215527  0.4446546  0.6939438  )
         5           Zn  tau(   5) = (  0.2220656  0.7771772  0.1924388  )
         6           Mg  tau(   6) = (  0.2247742  0.7806698  0.6949578  )
         7           Zn  tau(   7) = (  0.5564507  0.1111225  0.1941875  )
         8           Zn  tau(   8) = (  0.5556677  0.1118247  0.6945703  )
         9           Mg  tau(   9) = (  0.5555370  0.4452270  0.1940031  )
        10           Mg  tau(  10) = (  0.5555562  0.4440858  0.6935292  )
        11           Mg  tau(  11) = (  0.5531566  0.7764987  0.1948008  )
        12           Zn  tau(  12) = (  0.5567167  0.7792606  0.6910848  )
        13           Mg  tau(  13) = (  0.8902574  0.1127132  0.1921645  )
        14           Mg  tau(  14) = (  0.8900199  0.1108302  0.6929480  )
        15           Zn  tau(  15) = (  0.8891060  0.4446442  0.1920226  )
        16           Mg  tau(  16) = (  0.8889672  0.4458590  0.6964370  )
        17           Zn  tau(  17) = (  0.8866401  0.7776257  0.1943617  )
        18           Zn  tau(  18) = (  0.8903646  0.7778209  0.6938699  )
        19           Zn  tau(  19) = (  0.1096437  0.2225124  0.4447529  )
        20           Zn  tau(  20) = (  0.1115221  0.2216657  0.9439605  )
        21           Mg  tau(  21) = (  0.1092670  0.5561447  0.4438542  )
        22           Zn  tau(  22) = (  0.1126851  0.5551879  0.9426160  )
        23           Zn  tau(  23) = (  0.1123220  0.8883949  0.4433638  )
        24           Mg  tau(  24) = (  0.1090944  0.8879964  0.9463230  )
        25           Zn  tau(  25) = (  0.4436140  0.2214110  0.4431661  )
        26           Mg  tau(  26) = (  0.4441784  0.2216088  0.9447810  )
        27           Mg  tau(  27) = (  0.4419426  0.5532417  0.4448848  )
        28           Zn  tau(  28) = (  0.4446147  0.5564598  0.9420231  )
        29           Zn  tau(  29) = (  0.4427100  0.8891853  0.4443859  )
        30           Zn  tau(  30) = (  0.4461124  0.8879258  0.9442570  )
        31           Mg  tau(  31) = (  0.7767715  0.2238816  0.4440290  )
        32           Zn  tau(  32) = (  0.7777541  0.2203671  0.9420042  )
        33           Zn  tau(  33) = (  0.7788691  0.5540533  0.4445529  )
        34           Zn  tau(  34) = (  0.7766894  0.5566416  0.9439578  )
        35           Mg  tau(  35) = (  0.7796812  0.8893968  0.4431705  )
        36           Mg  tau(  36) = (  0.7749721  0.8860657  0.9421665  )
        37           O   tau(  37) = (  0.2224278  0.1102545  0.0034204  )
        38           O   tau(  38) = (  0.2214836  0.1108510  0.5034076  )
        39           O   tau(  39) = (  0.2226983  0.4439385  0.0034106  )
        40           O   tau(  40) = (  0.2205899  0.4449608  0.5028298  )
        41           O   tau(  41) = (  0.2225217  0.7777929  0.0015436  )
        42           O   tau(  42) = (  0.2217845  0.7770624  0.5050278  )
        43           O   tau(  43) = (  0.5560920  0.1108322  0.0031356  )
        44           O   tau(  44) = (  0.5550199  0.1111450  0.5033902  )
        45           O   tau(  45) = (  0.5544520  0.4435966  0.0034548  )
        46           O   tau(  46) = (  0.5551861  0.4441447  0.5031737  )
        47           O   tau(  47) = (  0.5554862  0.7766764  0.0048416  )
        48           O   tau(  48) = (  0.5560625  0.7772473  0.4999410  )
        49           O   tau(  49) = (  0.8881818  0.1085920  0.0017414  )
        50           O   tau(  50) = (  0.8868305  0.1108364  0.5026070  )
        51           O   tau(  51) = (  0.8889005  0.4439682  0.0008453  )
        52           O   tau(  52) = (  0.8892807  0.4439528  0.5059688  )
        53           O   tau(  53) = (  0.8875773  0.7778619  0.0034112  )
        54           O   tau(  54) = (  0.8896092  0.7774726  0.5027424  )
        55           O   tau(  55) = (  0.1112240  0.2228554  0.2533790  )
        56           O   tau(  56) = (  0.1116349  0.2223726  0.7529865  )
        57           O   tau(  57) = (  0.1109966  0.5554218  0.2535422  )
        58           O   tau(  58) = (  0.1118282  0.5576525  0.7517589  )
        59           O   tau(  59) = (  0.1104265  0.8884748  0.2520613  )
        60           O   tau(  60) = (  0.1118532  0.8889963  0.7558775  )
        61           O   tau(  61) = (  0.4451394  0.2228611  0.2519727  )
        62           O   tau(  62) = (  0.4451658  0.2230947  0.7548507  )
        63           O   tau(  63) = (  0.4456502  0.5559178  0.2550752  )
        64           O   tau(  64) = (  0.4449555  0.5562621  0.7508873  )
        65           O   tau(  65) = (  0.4435608  0.8888731  0.2532847  )
        66           O   tau(  66) = (  0.4462882  0.8897710  0.7533944  )
        67           O   tau(  67) = (  0.7788799  0.2227321  0.2537783  )
        68           O   tau(  68) = (  0.7792953  0.2226214  0.7509806  )
        69           O   tau(  69) = (  0.7776616  0.5551477  0.2531854  )
        70           O   tau(  70) = (  0.7768237  0.5555315  0.7531799  )
        71           O   tau(  71) = (  0.7764293  0.8904777  0.2524980  )
        72           O   tau(  72) = (  0.7785184  0.8892238  0.7520211  )

     number of k points=    80
                       cart. coord. in units 2pi/alat
        k(    1) = (   0.0000000   0.0000000   0.0000000), wk =   0.0156250
        k(    2) = (   0.0000553  -0.0000341   0.1337179), wk =   0.0156250
        k(    3) = (   0.0001107  -0.0000683   0.2674359), wk =   0.0156250
        k(    4) = (   0.0001660  -0.0001024   0.4011538), wk =   0.0156250
        k(    5) = (   0.0002214  -0.0001365   0.5348717), wk =   0.0156250
        k(    6) = (   0.0002767  -0.0001706   0.6685897), wk =   0.0156250
        k(    7) = (   0.0003321  -0.0002048   0.8023076), wk =   0.0156250
        k(    8) = (   0.0003874  -0.0002389   0.9360255), wk =   0.0156250
        k(    9) = (  -0.0001183   0.2885683  -0.0000737), wk =   0.0312500
        k(   10) = (  -0.0000629   0.2885341   0.1336442), wk =   0.0312500
        k(   11) = (  -0.0000076   0.2885000   0.2673622), wk =   0.0312500
        k(   12) = (   0.0000478   0.2884659   0.4010801), wk =   0.0312500
        k(   13) = (   0.0001031   0.2884318   0.5347980), wk =   0.0312500
        k(   14) = (   0.0001585   0.2883976   0.6685160), wk =   0.0312500
        k(   15) = (   0.0002138   0.2883635   0.8022339), wk =   0.0312500
        k(   16) = (   0.0002692   0.2883294   0.9359518), wk =   0.0312500
        k(   17) = (   0.0002365  -0.5771365   0.0001474), wk =   0.0156250
        k(   18) = (   0.0002919  -0.5771706   0.1338653), wk =   0.0156250
        k(   19) = (   0.0003472  -0.5772048   0.2675833), wk =   0.0156250
        k(   20) = (   0.0004026  -0.5772389   0.4013012), wk =   0.0156250
        k(   21) = (   0.0004579  -0.5772730   0.5350191), wk =   0.0156250
        k(   22) = (   0.0005132  -0.5773072   0.6687370), wk =   0.0156250
        k(   23) = (   0.0005686  -0.5773413   0.8024550), wk =   0.0156250
        k(   24) = (   0.0006239  -0.5773754   0.9361729), wk =   0.0156250
        k(   25) = (   0.2499410   0.1441813   0.0000665), wk =   0.0312500
        k(   26) = (   0.2499963   0.1441471   0.1337845), wk =   0.0312500
        k(   27) = (   0.2500517   0.1441130   0.2675024), wk =   0.0312500
        k(   28) = (   0.2501070   0.1440789   0.4012203), wk =   0.0312500
        k(   29) = (   0.2501624   0.1440447   0.5349383), wk =   0.0312500
        k(   30) = (   0.2502177   0.1440106   0.6686562), wk =   0.0312500
        k(   31) = (   0.2502731   0.1439765   0.8023741), wk =   0.0312500
        k(   32) = (   0.2503284   0.1439424   0.9360921), wk =   0.0312500
        k(   33) = (   0.2498227   0.4327495  -0.0000072), wk =   0.0312500
        k(   34) = (   0.2498781   0.4327154   0.1337108), wk =   0.0312500
        k(   35) = (   0.2499334   0.4326813   0.2674287), wk =   0.0312500
        k(   36) = (   0.2499888   0.4326471   0.4011466), wk =   0.0312500
        k(   37) = (   0.2500441   0.4326130   0.5348646), wk =   0.0312500
        k(   38) = (   0.2500995   0.4325789   0.6685825), wk =   0.0312500
        k(   39) = (   0.2501548   0.4325448   0.8023004), wk =   0.0312500
        k(   40) = (   0.2502102   0.4325106   0.9360184), wk =   0.0312500
        k(   41) = (   0.2501775  -0.4329553   0.0002139), wk =   0.0312500
        k(   42) = (   0.2502329  -0.4329894   0.1339319), wk =   0.0312500
        k(   43) = (   0.2502882  -0.4330235   0.2676498), wk =   0.0312500
        k(   44) = (   0.2503436  -0.4330576   0.4013677), wk =   0.0312500
        k(   45) = (   0.2503989  -0.4330918   0.5350857), wk =   0.0312500
        k(   46) = (   0.2504542  -0.4331259   0.6688036), wk =   0.0312500
        k(   47) = (   0.2505096  -0.4331600   0.8025215), wk =   0.0312500
        k(   48) = (   0.2505649  -0.4331942   0.9362394), wk =   0.0312500
        k(   49) = (   0.2500593  -0.1443870   0.0001402), wk =   0.0312500
        k(   50) = (   0.2501146  -0.1444211   0.1338582), wk =   0.0312500
        k(   51) = (   0.2501699  -0.1444553   0.2675761), wk =   0.0312500
        k(   52) = (   0.2502253  -0.1444894   0.4012940), wk =   0.0312500
        k(   53) = (   0.2502806  -0.1445235   0.5350120), wk =   0.0312500
        k(   54) = (   0.2503360  -0.1445576   0.6687299), wk =   0.0312500
        k(   55) = (   0.2503913  -0.1445918   0.8024478), wk =   0.0312500
        k(   56) = (   0.2504467  -0.1446259   0.9361658), wk =   0.0312500
        k(   57) = (  -0.4998820  -0.2883625  -0.0001331), wk =   0.0156250
        k(   58) = (  -0.4998267  -0.2883966   0.1335849), wk =   0.0156250
        k(   59) = (  -0.4997713  -0.2884308   0.2673028), wk =   0.0156250
        k(   60) = (  -0.4997160  -0.2884649   0.4010207), wk =   0.0156250
        k(   61) = (  -0.4996606  -0.2884990   0.5347387), wk =   0.0156250
        k(   62) = (  -0.4996053  -0.2885332   0.6684566), wk =   0.0156250
        k(   63) = (  -0.4995499  -0.2885673   0.8021745), wk =   0.0156250
        k(   64) = (  -0.4994946  -0.2886014   0.9358925), wk =   0.0156250
        k(   65) = (  -0.5000003   0.0002057  -0.0002068), wk =   0.0312500
        k(   66) = (  -0.4999449   0.0001716   0.1335112), wk =   0.0312500
        k(   67) = (  -0.4998896   0.0001375   0.2672291), wk =   0.0312500
        k(   68) = (  -0.4998342   0.0001034   0.4009470), wk =   0.0312500
        k(   69) = (  -0.4997789   0.0000692   0.5346650), wk =   0.0312500
        k(   70) = (  -0.4997235   0.0000351   0.6683829), wk =   0.0312500
        k(   71) = (  -0.4996682   0.0000010   0.8021008), wk =   0.0312500
        k(   72) = (  -0.4996128  -0.0000331   0.9358188), wk =   0.0312500
        k(   73) = (  -0.4996455  -0.8654990   0.0000143), wk =   0.0156250
        k(   74) = (  -0.4995901  -0.8655332   0.1337323), wk =   0.0156250
        k(   75) = (  -0.4995348  -0.8655673   0.2674502), wk =   0.0156250
        k(   76) = (  -0.4994794  -0.8656014   0.4011681), wk =   0.0156250
        k(   77) = (  -0.4994241  -0.8656355   0.5348861), wk =   0.0156250
        k(   78) = (  -0.4993688  -0.8656697   0.6686040), wk =   0.0156250
        k(   79) = (  -0.4993134  -0.8657038   0.8023219), wk =   0.0156250
        k(   80) = (  -0.4992581  -0.8657379   0.9360398), wk =   0.0156250

                       cryst. coord.
        k(    1) = (   0.0000000   0.0000000   0.0000000), wk =   0.0156250
        k(    2) = (  -0.0000000  -0.0000000   0.1428571), wk =   0.0156250
        k(    3) = (  -0.0000000  -0.0000000   0.2857143), wk =   0.0156250
        k(    4) = (  -0.0000000   0.0000000   0.4285714), wk =   0.0156250
        k(    5) = (  -0.0000000  -0.0000000   0.5714286), wk =   0.0156250
        k(    6) = (  -0.0000000  -0.0000000   0.7142857), wk =   0.0156250
        k(    7) = (  -0.0000000   0.0000000   0.8571429), wk =   0.0156250
        k(    8) = (  -0.0000000   0.0000000   1.0000000), wk =   0.0156250
        k(    9) = (   0.0000000   0.2500000   0.0000000), wk =   0.0312500
        k(   10) = (   0.0000000   0.2500000   0.1428571), wk =   0.0312500
        k(   11) = (   0.0000000   0.2500000   0.2857143), wk =   0.0312500
        k(   12) = (  -0.0000000   0.2500000   0.4285714), wk =   0.0312500
        k(   13) = (  -0.0000000   0.2500000   0.5714286), wk =   0.0312500
        k(   14) = (  -0.0000000   0.2500000   0.7142857), wk =   0.0312500
        k(   15) = (   0.0000000   0.2500000   0.8571429), wk =   0.0312500
        k(   16) = (  -0.0000000   0.2500000   1.0000000), wk =   0.0312500
        k(   17) = (  -0.0000000  -0.5000000  -0.0000000), wk =   0.0156250
        k(   18) = (  -0.0000000  -0.5000000   0.1428571), wk =   0.0156250
        k(   19) = (  -0.0000000  -0.5000000   0.2857143), wk =   0.0156250
        k(   20) = (  -0.0000000  -0.5000000   0.4285714), wk =   0.0156250
        k(   21) = (  -0.0000000  -0.5000000   0.5714286), wk =   0.0156250
        k(   22) = (  -0.0000000  -0.5000000   0.7142857), wk =   0.0156250
        k(   23) = (  -0.0000000  -0.5000000   0.8571429), wk =   0.0156250
        k(   24) = (  -0.0000000  -0.5000000   1.0000000), wk =   0.0156250
        k(   25) = (   0.2500000  -0.0000000  -0.0000000), wk =   0.0312500
        k(   26) = (   0.2500000  -0.0000000   0.1428571), wk =   0.0312500
        k(   27) = (   0.2500000  -0.0000000   0.2857143), wk =   0.0312500
        k(   28) = (   0.2500000  -0.0000000   0.4285714), wk =   0.0312500
        k(   29) = (   0.2500000  -0.0000000   0.5714286), wk =   0.0312500
        k(   30) = (   0.2500000  -0.0000000   0.7142857), wk =   0.0312500
        k(   31) = (   0.2500000  -0.0000000   0.8571429), wk =   0.0312500
        k(   32) = (   0.2500000  -0.0000000   1.0000000), wk =   0.0312500
        k(   33) = (   0.2500000   0.2500000  -0.0000000), wk =   0.0312500
        k(   34) = (   0.2500000   0.2500000   0.1428571), wk =   0.0312500
        k(   35) = (   0.2500000   0.2500000   0.2857143), wk =   0.0312500
        k(   36) = (   0.2500000   0.2500000   0.4285714), wk =   0.0312500
        k(   37) = (   0.2500000   0.2500000   0.5714286), wk =   0.0312500
        k(   38) = (   0.2500000   0.2500000   0.7142857), wk =   0.0312500
        k(   39) = (   0.2500000   0.2500000   0.8571429), wk =   0.0312500
        k(   40) = (   0.2500000   0.2500000   1.0000000), wk =   0.0312500
        k(   41) = (   0.2500000  -0.5000000  -0.0000000), wk =   0.0312500
        k(   42) = (   0.2500000  -0.5000000   0.1428571), wk =   0.0312500
        k(   43) = (   0.2500000  -0.5000000   0.2857143), wk =   0.0312500
        k(   44) = (   0.2500000  -0.5000000   0.4285714), wk =   0.0312500
        k(   45) = (   0.2500000  -0.5000000   0.5714286), wk =   0.0312500
        k(   46) = (   0.2500000  -0.5000000   0.7142857), wk =   0.0312500
        k(   47) = (   0.2500000  -0.5000000   0.8571429), wk =   0.0312500
        k(   48) = (   0.2500000  -0.5000000   1.0000000), wk =   0.0312500
        k(   49) = (   0.2500000  -0.2500000  -0.0000000), wk =   0.0312500
        k(   50) = (   0.2500000  -0.2500000   0.1428571), wk =   0.0312500
        k(   51) = (   0.2500000  -0.2500000   0.2857143), wk =   0.0312500
        k(   52) = (   0.2500000  -0.2500000   0.4285714), wk =   0.0312500
        k(   53) = (   0.2500000  -0.2500000   0.5714286), wk =   0.0312500
        k(   54) = (   0.2500000  -0.2500000   0.7142857), wk =   0.0312500
        k(   55) = (   0.2500000  -0.2500000   0.8571429), wk =   0.0312500
        k(   56) = (   0.2500000  -0.2500000   1.0000000), wk =   0.0312500
        k(   57) = (  -0.5000000   0.0000000   0.0000000), wk =   0.0156250
        k(   58) = (  -0.5000000   0.0000000   0.1428571), wk =   0.0156250
        k(   59) = (  -0.5000000  -0.0000000   0.2857143), wk =   0.0156250
        k(   60) = (  -0.5000000   0.0000000   0.4285714), wk =   0.0156250
        k(   61) = (  -0.5000000   0.0000000   0.5714286), wk =   0.0156250
        k(   62) = (  -0.5000000   0.0000000   0.7142857), wk =   0.0156250
        k(   63) = (  -0.5000000   0.0000000   0.8571429), wk =   0.0156250
        k(   64) = (  -0.5000000   0.0000000   1.0000000), wk =   0.0156250
        k(   65) = (  -0.5000000   0.2500000   0.0000000), wk =   0.0312500
        k(   66) = (  -0.5000000   0.2500000   0.1428571), wk =   0.0312500
        k(   67) = (  -0.5000000   0.2500000   0.2857143), wk =   0.0312500
        k(   68) = (  -0.5000000   0.2500000   0.4285714), wk =   0.0312500
        k(   69) = (  -0.5000000   0.2500000   0.5714286), wk =   0.0312500
        k(   70) = (  -0.5000000   0.2500000   0.7142857), wk =   0.0312500
        k(   71) = (  -0.5000000   0.2500000   0.8571429), wk =   0.0312500
        k(   72) = (  -0.5000000   0.2500000   1.0000000), wk =   0.0312500
        k(   73) = (  -0.5000000  -0.5000000   0.0000000), wk =   0.0156250
        k(   74) = (  -0.5000000  -0.5000000   0.1428571), wk =   0.0156250
        k(   75) = (  -0.5000000  -0.5000000   0.2857143), wk =   0.0156250
        k(   76) = (  -0.5000000  -0.5000000   0.4285714), wk =   0.0156250
        k(   77) = (  -0.5000000  -0.5000000   0.5714286), wk =   0.0156250
        k(   78) = (  -0.5000000  -0.5000000   0.7142857), wk =   0.0156250
        k(   79) = (  -0.5000000  -0.5000000   0.8571429), wk =   0.0156250
        k(   80) = (  -0.5000000  -0.5000000   1.0000000), wk =   0.0156250

     Dense  grid:  1092783 G-vectors     FFT dimensions: ( 135, 135, 144)

     Smooth grid:   363529 G-vectors     FFT dimensions: (  96,  96, 100)

     Dynamical RAM for                 wfc:       2.15 MB

     Dynamical RAM for     wfc (w. buffer):     174.14 MB

     Dynamical RAM for           str. fact:       0.39 MB

     Dynamical RAM for           local pot:       0.00 MB

     Dynamical RAM for          nlocal pot:       6.10 MB

     Dynamical RAM for                qrad:      21.02 MB

     Dynamical RAM for          rho,v,vnew:       1.23 MB

     Dynamical RAM for           G-vectors:       0.51 MB

     Dynamical RAM for          h,s,v(r/c):       1.81 MB

     Dynamical RAM for          <psi|beta>:       6.86 MB

     Dynamical RAM for                 psi:       8.60 MB

     Dynamical RAM for                hpsi:       8.60 MB

     Dynamical RAM for                spsi:       8.60 MB

     Dynamical RAM for      wfcinit/wfcrot:      11.13 MB

     Dynamical RAM for           addusdens:      31.39 MB

     Estimated static dynamical RAM per process >     205.30 MB

     Estimated max dynamical RAM per process >     239.77 MB

     Estimated total dynamical RAM >      29.97 GB

     Check: negative core charge=   -0.000002

     The potential is recalculated from file :
     ./temp/ZnO.save/charge-density

     Starting wfcs are  500 randomized atomic wfcs

     Band Structure Calculation
     Davidson diagonalization with overlap

     Computing kpt #:     1
     total cpu time spent up to now is       19.6 secs

     Computing kpt #:     2
     total cpu time spent up to now is       32.9 secs

     Computing kpt #:     3
     total cpu time spent up to now is       46.2 secs

     Computing kpt #:     4
     total cpu time spent up to now is       59.5 secs

     Computing kpt #:     5
     total cpu time spent up to now is       72.7 secs

     Computing kpt #:     6
     total cpu time spent up to now is       85.9 secs

     Computing kpt #:     7
     total cpu time spent up to now is       99.1 secs

     Computing kpt #:     8
     total cpu time spent up to now is      112.5 secs

     Computing kpt #:     9
     total cpu time spent up to now is      125.8 secs

     Computing kpt #:    10
     total cpu time spent up to now is      139.0 secs

     Computing kpt #:    11
     total cpu time spent up to now is      152.2 secs

     Computing kpt #:    12
     total cpu time spent up to now is      165.5 secs

     Computing kpt #:    13
     total cpu time spent up to now is      178.8 secs

     Computing kpt #:    14
     total cpu time spent up to now is      192.0 secs

     Computing kpt #:    15
     total cpu time spent up to now is      205.2 secs

     Computing kpt #:    16
     total cpu time spent up to now is      218.5 secs

     Computing kpt #:    17
     total cpu time spent up to now is      231.8 secs

     Computing kpt #:    18
     total cpu time spent up to now is      245.1 secs

     Computing kpt #:    19
     total cpu time spent up to now is      258.3 secs

     Computing kpt #:    20
     total cpu time spent up to now is      271.5 secs

     Computing kpt #:    21
     total cpu time spent up to now is      284.7 secs

     Computing kpt #:    22
     total cpu time spent up to now is      298.0 secs

     Computing kpt #:    23
     total cpu time spent up to now is      311.2 secs

     Computing kpt #:    24
     total cpu time spent up to now is      324.5 secs

     Computing kpt #:    25
     total cpu time spent up to now is      337.7 secs

     Computing kpt #:    26
     total cpu time spent up to now is      351.0 secs

     Computing kpt #:    27
     total cpu time spent up to now is      364.3 secs

     Computing kpt #:    28
     total cpu time spent up to now is      377.5 secs

     Computing kpt #:    29
     total cpu time spent up to now is      390.8 secs

     Computing kpt #:    30
     total cpu time spent up to now is      404.0 secs

     Computing kpt #:    31
     total cpu time spent up to now is      417.2 secs

     Computing kpt #:    32
     total cpu time spent up to now is      430.6 secs

     Computing kpt #:    33
     total cpu time spent up to now is      443.8 secs

     Computing kpt #:    34
     total cpu time spent up to now is      457.0 secs

     Computing kpt #:    35
     total cpu time spent up to now is      470.2 secs

     Computing kpt #:    36
     total cpu time spent up to now is      483.4 secs

     Computing kpt #:    37
     total cpu time spent up to now is      496.5 secs

     Computing kpt #:    38
     total cpu time spent up to now is      509.8 secs

     Computing kpt #:    39
     total cpu time spent up to now is      523.0 secs

     Computing kpt #:    40
     total cpu time spent up to now is      536.3 secs

     Computing kpt #:    41
     total cpu time spent up to now is      549.5 secs

     Computing kpt #:    42
     total cpu time spent up to now is      562.7 secs

     Computing kpt #:    43
     total cpu time spent up to now is      576.0 secs

     Computing kpt #:    44
     total cpu time spent up to now is      589.2 secs

     Computing kpt #:    45
     total cpu time spent up to now is      602.6 secs

     Computing kpt #:    46
     total cpu time spent up to now is      615.8 secs

     Computing kpt #:    47
     total cpu time spent up to now is      629.1 secs

     Computing kpt #:    48
     total cpu time spent up to now is      642.3 secs

     Computing kpt #:    49
     total cpu time spent up to now is      655.7 secs

     Computing kpt #:    50
     total cpu time spent up to now is      668.9 secs

     Computing kpt #:    51
     total cpu time spent up to now is      682.2 secs

     Computing kpt #:    52
     total cpu time spent up to now is      695.4 secs

     Computing kpt #:    53
     total cpu time spent up to now is      708.6 secs

     Computing kpt #:    54
     total cpu time spent up to now is      722.0 secs

     Computing kpt #:    55
     total cpu time spent up to now is      735.2 secs

     Computing kpt #:    56
     total cpu time spent up to now is      748.6 secs

     Computing kpt #:    57
     total cpu time spent up to now is      761.8 secs

     Computing kpt #:    58
     total cpu time spent up to now is      775.1 secs

     Computing kpt #:    59
     total cpu time spent up to now is      788.4 secs

     Computing kpt #:    60
     total cpu time spent up to now is      801.5 secs

     Computing kpt #:    61
     total cpu time spent up to now is      814.8 secs

     Computing kpt #:    62
     total cpu time spent up to now is      828.0 secs

     Computing kpt #:    63
     total cpu time spent up to now is      841.4 secs

     Computing kpt #:    64
     total cpu time spent up to now is      854.6 secs

     Computing kpt #:    65
     total cpu time spent up to now is      867.9 secs

     Computing kpt #:    66
     total cpu time spent up to now is      881.1 secs

     Computing kpt #:    67
     total cpu time spent up to now is      894.4 secs

     Computing kpt #:    68
     total cpu time spent up to now is      907.6 secs

     Computing kpt #:    69
     total cpu time spent up to now is      920.7 secs

     Computing kpt #:    70
     total cpu time spent up to now is      933.9 secs

     Computing kpt #:    71
     total cpu time spent up to now is      947.2 secs

     Computing kpt #:    72
     total cpu time spent up to now is      960.4 secs

     Computing kpt #:    73
     total cpu time spent up to now is      973.7 secs

     Computing kpt #:    74
     total cpu time spent up to now is      986.9 secs

     Computing kpt #:    75
     total cpu time spent up to now is     1000.1 secs

     Computing kpt #:    76
     total cpu time spent up to now is     1013.4 secs

     Computing kpt #:    77
     total cpu time spent up to now is     1026.6 secs

     Computing kpt #:    78
     total cpu time spent up to now is     1039.8 secs

     Computing kpt #:    79
     total cpu time spent up to now is     1053.0 secs

     Computing kpt #:    80
     total cpu time spent up to now is     1066.2 secs

     ethr =  1.26E-12,  avg # of iterations = 12.1

     total cpu time spent up to now is     1066.3 secs

     End of band structure calculation

          k = 0.0000 0.0000 0.0000 ( 45471 PWs)   bands (ev):

  -115.6381-115.6368-115.6288-115.6272-115.6225-115.6224-115.6211-115.6208
  -115.6195-115.6188-115.6187-115.6185-115.6182-115.6176-115.6159-115.6144
  -115.6136-115.6136-115.6131-115.6120-115.6119-115.6013 -69.9968 -69.9943
   -69.9938 -69.9923 -69.9914 -69.9912 -69.9881 -69.9861 -69.9846 -69.9845
   -69.9831 -69.9825 -69.9820 -69.9818 -69.9807 -69.9799 -69.9794 -69.9785
   -69.9783 -69.9782 -69.9779 -69.9777 -69.9774 -69.9773 -69.9767 -69.9765
   -69.9762 -69.9762 -69.9759 -69.9755 -69.9753 -69.9749 -69.9746 -69.9744
   -69.9743 -69.9740 -69.9738 -69.9737 -69.9733 -69.9731 -69.9728 -69.9725
   -69.9723 -69.9723 -69.9720 -69.9714 -69.9710 -69.9701 -69.9700 -69.9698
   -69.9697 -69.9694 -69.9690 -69.9685 -69.9673 -69.9672 -69.9668 -69.9663
   -69.9661 -69.9655 -69.9646 -69.9640 -69.9608 -69.9601 -69.9581 -69.9541
   -65.0957 -65.0945 -65.0927 -65.0884 -65.0833 -65.0821 -65.0806 -65.0740
   -65.0708 -65.0707 -65.0611 -65.0553 -65.0475 -65.0382 -32.0871 -32.0866
   -32.0839 -32.0830 -32.0827 -32.0809 -32.0803 -32.0791 -32.0771 -32.0770
   -32.0760 -32.0737 -32.0735 -32.0720 -32.0694 -32.0686 -32.0683 -32.0678
   -32.0659 -32.0653 -32.0648 -32.0610 -32.0601 -32.0601 -32.0590 -32.0583
   -32.0568 -32.0560 -32.0534 -32.0512 -32.0484 -32.0451 -32.0448 -32.0423
   -32.0412 -32.0387 -32.0340 -32.0311 -32.0292 -32.0260 -32.0229 -32.0219
   -10.2224  -9.9262  -9.8758  -9.8177  -9.7706  -9.7519  -9.7227  -9.6979
    -9.6322  -9.5970  -9.5891  -9.5756  -9.5655  -9.5272  -9.5244  -9.4994
    -9.4740  -9.4472  -9.4359  -9.4108  -9.4059  -9.3749  -9.3585  -9.3313
    -9.3110  -9.2996  -9.2865  -9.2697  -9.2618  -9.2508  -9.2441  -9.2218
    -9.1467  -9.1356  -9.1040  -9.0635   1.5937   1.6014   1.6196   1.6374
     1.6445   1.6624   1.6811   1.6920   1.7272   1.7334   1.7497   1.7774
     1.7888   1.8146   1.8454   1.8652   1.8783   1.8928   1.9162   1.9296
     1.9547   1.9675   1.9900   2.0172   2.0209   2.0281   2.0470   2.0591
     2.0660   2.0806   2.1036   2.1075   2.1226   2.1318   2.1477   2.1513
     2.1590   2.1749   2.1755   2.1928   2.1960   2.2186   2.2192   2.2389
     2.2450   2.2649   2.2689   2.2794   2.2851   2.3001   2.3092   2.3252
     2.3353   2.3660   2.3896   2.4129   2.4453   2.4635   2.4652   2.4879
     2.5008   2.5398   2.5491   2.5553   2.5799   2.6004   2.6082   2.6225
     2.6455   2.6585   2.6671   2.6715   2.6934   2.7013   2.7049   2.7157
     2.7400   2.7557   2.7594   2.7760   2.7904   2.8062   2.8124   2.8388
     2.8690   2.8765   2.8815   2.9020   2.9227   2.9358   2.9532   2.9605
     2.9870   2.9934   3.0142   3.0157   3.0215   3.0353   3.0405   3.0525
     3.0630   3.0668   3.0913   3.1007   3.1108   3.1242   3.1285   3.1706
     3.1894   3.2000   3.2489   3.3071   3.3846   3.4449   3.4862   3.5023
     3.5587   3.5870   3.5963   3.6390   3.6495   3.6842   3.7098   3.7346
     3.7568   3.7891   3.8338   3.8546   3.8690   3.9152   3.9831   4.0225
     4.0667   4.0730   4.1086   4.1368   4.1808   4.2519   4.3605   4.3669
     4.4134   4.4286   4.4867   4.5149   4.5548   4.6103   4.6136   4.6348
     4.6595   4.7364   4.8030   4.8212   4.8532   4.9816   5.0075   5.1861
     5.2077   5.2624   5.2966   5.3204   5.3493   5.4129   5.4640   5.4734
     5.5269   5.5394   5.5677   5.5766   5.5893   5.6004   5.6333   5.6531
     5.6655   5.7559   5.7721   5.8248   5.8582   5.8798   5.9036   5.9358
     5.9546   5.9648   6.0203   6.0754   6.0811   6.1010   6.1345   6.1476
     6.1493   6.1698   6.1793   6.1956   6.2163   6.2245   6.2377   6.2406
     6.2624   6.2664   6.3798   6.3872   6.4251   6.4580   6.4662   6.5039
     6.5222   6.5285   6.5674   6.5779   6.6299   6.6549   6.7026   6.7989
     6.8002   6.8429   6.9169   7.0777   7.0924   7.1148

     occupation numbers 
     1.0000   1.0000   1.0000   1.0000   1.0000   1.0000   1.0000   1.0000
     1.0000   1.0000   1.0000   1.0000   1.0000   1.0000   1.0000   1.0000
     1.0000   1.0000   1.0000   1.0000   1.0000   1.0000   1.0000   1.0000
     1.0000   1.0000   1.0000   1.0000   1.0000   1.0000   1.0000   1.0000
     1.0000   1.0000   1.0000   1.0000   1.0000   1.0000   1.0000   1.0000
     1.0000   1.0000   1.0000   1.0000   1.0000   1.0000   1.0000   1.0000
     1.0000   1.0000   1.0000   1.0000   1.0000   1.0000   1.0000   1.0000
     1.0000   1.0000   1.0000   1.0000   1.0000   1.0000   1.0000   1.0000
     1.0000   1.0000   1.0000   1.0000   1.0000   1.0000   1.0000   1.0000
     1.0000   1.0000   1.0000   1.0000   1.0000   1.0000   1.0000   1.0000
     1.0000   1.0000   1.0000   1.0000   1.0000   1.0000   1.0000   1.0000
     1.0000   1.0000   1.0000   1.0000   1.0000   1.0000   1.0000   1.0000
     1.0000   1.0000   1.0000   1.0000   1.0000   1.0000   1.0000   1.0000
     1.0000   1.0000   1.0000   1.0000   1.0000   1.0000   1.0000   1.0000
     1.0000   1.0000   1.0000   1.0000   1.0000   1.0000   1.0000   1.0000
     1.0000   1.0000   1.0000   1.0000   1.0000   1.0000   1.0000   1.0000
     1.0000   1.0000   1.0000   1.0000   1.0000   1.0000   1.0000   1.0000
     1.0000   1.0000   1.0000   1.0000   1.0000   1.0000   1.0000   1.0000
     1.0000   1.0000   1.0000   1.0000   1.0000   1.0000   1.0000   1.0000
     1.0000   1.0000   1.0000   1.0000   1.0000   1.0000   1.0000   1.0000
     1.0000   1.0000   1.0000   1.0000   1.0000   1.0000   1.0000   1.0000
     1.0000   1.0000   1.0000   1.0000   1.0000   1.0000   1.0000   1.0000
     1.0000   1.0000   1.0000   1.0000   1.0000   1.0000   1.0000   1.0000
     1.0000   1.0000   1.0000   1.0000   1.0000   1.0000   1.0000   1.0000
     1.0000   1.0000   1.0000   1.0000   1.0000   1.0000   1.0000   1.0000
     1.0000   1.0000   1.0000   1.0000   1.0000   1.0000   1.0000   1.0000
     1.0000   1.0000   1.0000   1.0000   1.0000   1.0000   1.0000   1.0000
     1.0000   1.0000   1.0000   1.0000   1.0000   1.0000   1.0000   1.0000
     1.0000   1.0000   1.0000   1.0000   1.0000   1.0000   1.0000   1.0000
     1.0000   1.0000   1.0000   1.0000   1.0000   1.0000   1.0000   1.0000
     1.0000   1.0000   1.0000   1.0000   1.0000   1.0000   1.0000   1.0000
     1.0000   1.0000   1.0000   1.0000   1.0000   1.0000   1.0000   1.0000
     1.0000   1.0000   1.0000   1.0000   1.0000   1.0000   1.0000   1.0000
     1.0000   1.0000   1.0000   1.0000   1.0000   1.0000   1.0000   1.0000
     1.0000   1.0000   1.0000   1.0000   1.0000   1.0000   1.0000   1.0000
     1.0000   1.0000   1.0000   1.0000   1.0000   1.0000   1.0000   1.0000
     1.0000   1.0000   1.0000   1.0000   1.0000   1.0000   1.0000   1.0000
     1.0000   1.0000   1.0000   1.0000   1.0000   1.0000   1.0000   1.0000
     1.0000   1.0000   1.0000   1.0000   1.0000   1.0000   1.0000   1.0000
     1.0000   1.0000   1.0000   1.0000   1.0000   1.0000   1.0000   1.0000
     1.0000   1.0000   1.0000   1.0000   1.0000   1.0000   1.0000   1.0000
     1.0000   1.0000   1.0000   1.0000   1.0000   1.0000   1.0000   1.0000
     1.0000   1.0000   1.0000   1.0000   1.0000   1.0000   1.0000   1.0000
     1.0000   1.0000   1.0000   1.0000   1.0000   1.0000   1.0000   1.0000
     1.0000   1.0000   1.0000   1.0000   1.0000   1.0000   1.0000   1.0000
     1.0000   1.0000   1.0000   1.0000   1.0000   1.0000   1.0000   1.0000
     1.0000   1.0000   1.0000   1.0000   1.0000   1.0000   1.0000   1.0000
     1.0000   1.0000   1.0000   1.0000   1.0000   1.0000   1.0000   1.0000
     1.0000   1.0000   1.0000   1.0000   1.0000   1.0000   1.0000   1.0000
     1.0000   1.0000   1.0000   1.0000   1.0000   1.0000

          k = 0.0001-0.0000 0.1337 ( 45401 PWs)   bands (ev):

  -115.6381-115.6368-115.6288-115.6272-115.6225-115.6224-115.6211-115.6208
  -115.6195-115.6188-115.6187-115.6185-115.6182-115.6176-115.6159-115.6144
  -115.6136-115.6136-115.6131-115.6120-115.6119-115.6013 -69.9968 -69.9943
   -69.9938 -69.9923 -69.9914 -69.9912 -69.9881 -69.9861 -69.9846 -69.9845
   -69.9831 -69.9825 -69.9820 -69.9818 -69.9807 -69.9799 -69.9794 -69.9785
   -69.9783 -69.9782 -69.9779 -69.9777 -69.9774 -69.9773 -69.9767 -69.9765
   -69.9762 -69.9762 -69.9759 -69.9755 -69.9753 -69.9749 -69.9746 -69.9744
   -69.9743 -69.9740 -69.9738 -69.9737 -69.9733 -69.9731 -69.9728 -69.9725
   -69.9723 -69.9723 -69.9720 -69.9714 -69.9710 -69.9701 -69.9700 -69.9698
   -69.9697 -69.9694 -69.9690 -69.9685 -69.9673 -69.9672 -69.9668 -69.9663
   -69.9661 -69.9655 -69.9646 -69.9640 -69.9608 -69.9601 -69.9581 -69.9541
   -65.0957 -65.0945 -65.0927 -65.0884 -65.0833 -65.0821 -65.0806 -65.0740
   -65.0708 -65.0707 -65.0611 -65.0553 -65.0475 -65.0382 -32.0871 -32.0866
   -32.0840 -32.0830 -32.0827 -32.0809 -32.0803 -32.0790 -32.0771 -32.0770
   -32.0760 -32.0738 -32.0735 -32.0720 -32.0694 -32.0685 -32.0683 -32.0678
   -32.0659 -32.0653 -32.0648 -32.0610 -32.0601 -32.0601 -32.0590 -32.0583
   -32.0568 -32.0560 -32.0534 -32.0512 -32.0484 -32.0451 -32.0448 -32.0423
   -32.0412 -32.0387 -32.0340 -32.0311 -32.0292 -32.0260 -32.0229 -32.0219
   -10.2143  -9.9679  -9.8477  -9.8136  -9.7674  -9.7510  -9.7126  -9.6907
    -9.6337  -9.6185  -9.6030  -9.5762  -9.5590  -9.5403  -9.5139  -9.5040
    -9.4661  -9.4483  -9.4287  -9.4168  -9.4004  -9.3672  -9.3564  -9.3303
    -9.3089  -9.3004  -9.2860  -9.2685  -9.2629  -9.2509  -9.2436  -9.2247
    -9.1485  -9.1367  -9.1049  -9.0651   1.5948   1.6087   1.6238   1.6386
     1.6586   1.6655   1.6904   1.6961   1.7287   1.7360   1.7525   1.7766
     1.7962   1.8181   1.8490   1.8722   1.8837   1.8963   1.9182   1.9306
     1.9570   1.9671   1.9869   2.0141   2.0186   2.0330   2.0425   2.0552
     2.0662   2.0803   2.0955   2.1029   2.1198   2.1279   2.1395   2.1498
     2.1585   2.1729   2.1799   2.1904   2.2029   2.2117   2.2286   2.2386
     2.2423   2.2592   2.2705   2.2786   2.2892   2.3005   2.3038   2.3258
     2.3357   2.3606   2.3844   2.4124   2.4362   2.4580   2.4647   2.4814
     2.4964   2.5317   2.5361   2.5504   2.5736   2.5944   2.5972   2.6139
     2.6212   2.6480   2.6576   2.6701   2.6803   2.6958   2.7063   2.7197
     2.7356   2.7418   2.7516   2.7744   2.7881   2.8081   2.8135   2.8273
     2.8601   2.8706   2.8843   2.9002   2.9234   2.9313   2.9447   2.9558
     2.9902   3.0007   3.0082   3.0126   3.0299   3.0377   3.0444   3.0559
     3.0641   3.0729   3.0927   3.0976   3.1077   3.1232   3.1372   3.1586
     3.1839   3.1969   3.2455   3.3445   3.4269   3.4452   3.5065   3.5236
     3.5608   3.5907   3.6017   3.6342   3.6559   3.6933   3.7219   3.7430
     3.7604   3.7950   3.8518   3.8608   3.8892   3.9336   3.9857   4.0379
     4.0712   4.0931   4.1240   4.1675   4.1857   4.2690   4.3472   4.3775
     4.3926   4.4178   4.4553   4.4815   4.5189   4.5410   4.5678   4.6210
     4.6979   4.7678   4.8104   4.8615   4.9423   4.9829   5.0851   5.1928
     5.2144   5.2662   5.3067   5.3204   5.3547   5.4078   5.4493   5.4606
     5.4937   5.5109   5.5428   5.5568   5.5845   5.5995   5.6160   5.6226
     5.6483   5.6803   5.7285   5.8073   5.8295   5.8466   5.8805   5.9156
     5.9507   5.9618   5.9997   6.0207   6.0648   6.1020   6.1150   6.1386
     6.1549   6.1886   6.2076   6.2168   6.2354   6.2564   6.2751   6.3023
     6.3204   6.3390   6.3833   6.3949   6.4353   6.4661   6.4804   6.5121
     6.5281   6.5402   6.5665   6.5820   6.6198   6.6512   6.6943   6.7566
     6.7932   6.8769   6.9298   6.9973   7.0876   7.1097

     occupation numbers 
     1.0000   1.0000   1.0000   1.0000   1.0000   1.0000   1.0000   1.0000
     1.0000   1.0000   1.0000   1.0000   1.0000   1.0000   1.0000   1.0000
     1.0000   1.0000   1.0000   1.0000   1.0000   1.0000   1.0000   1.0000
     1.0000   1.0000   1.0000   1.0000   1.0000   1.0000   1.0000   1.0000
     1.0000   1.0000   1.0000   1.0000   1.0000   1.0000   1.0000   1.0000
     1.0000   1.0000   1.0000   1.0000   1.0000   1.0000   1.0000   1.0000
     1.0000   1.0000   1.0000   1.0000   1.0000   1.0000   1.0000   1.0000
     1.0000   1.0000   1.0000   1.0000   1.0000   1.0000   1.0000   1.0000
     1.0000   1.0000   1.0000   1.0000   1.0000   1.0000   1.0000   1.0000
     1.0000   1.0000   1.0000   1.0000   1.0000   1.0000   1.0000   1.0000
     1.0000   1.0000   1.0000   1.0000   1.0000   1.0000   1.0000   1.0000
     1.0000   1.0000   1.0000   1.0000   1.0000   1.0000   1.0000   1.0000
     1.0000   1.0000   1.0000   1.0000   1.0000   1.0000   1.0000   1.0000
     1.0000   1.0000   1.0000   1.0000   1.0000   1.0000   1.0000   1.0000
     1.0000   1.0000   1.0000   1.0000   1.0000   1.0000   1.0000   1.0000
     1.0000   1.0000   1.0000   1.0000   1.0000   1.0000   1.0000   1.0000
     1.0000   1.0000   1.0000   1.0000   1.0000   1.0000   1.0000   1.0000
     1.0000   1.0000   1.0000   1.0000   1.0000   1.0000   1.0000   1.0000
     1.0000   1.0000   1.0000   1.0000   1.0000   1.0000   1.0000   1.0000
     1.0000   1.0000   1.0000   1.0000   1.0000   1.0000   1.0000   1.0000
     1.0000   1.0000   1.0000   1.0000   1.0000   1.0000   1.0000   1.0000
     1.0000   1.0000   1.0000   1.0000   1.0000   1.0000   1.0000   1.0000
     1.0000   1.0000   1.0000   1.0000   1.0000   1.0000   1.0000   1.0000
     1.0000   1.0000   1.0000   1.0000   1.0000   1.0000   1.0000   1.0000
     1.0000   1.0000   1.0000   1.0000   1.0000   1.0000   1.0000   1.0000
     1.0000   1.0000   1.0000   1.0000   1.0000   1.0000   1.0000   1.0000
     1.0000   1.0000   1.0000   1.0000   1.0000   1.0000   1.0000   1.0000
     1.0000   1.0000   1.0000   1.0000   1.0000   1.0000   1.0000   1.0000
     1.0000   1.0000   1.0000   1.0000   1.0000   1.0000   1.0000   1.0000
     1.0000   1.0000   1.0000   1.0000   1.0000   1.0000   1.0000   1.0000
     1.0000   1.0000   1.0000   1.0000   1.0000   1.0000   1.0000   1.0000
     1.0000   1.0000   1.0000   1.0000   1.0000   1.0000   1.0000   1.0000
     1.0000   1.0000   1.0000   1.0000   1.0000   1.0000   1.0000   1.0000
     1.0000   1.0000   1.0000   1.0000   1.0000   1.0000   1.0000   1.0000
     1.0000   1.0000   1.0000   1.0000   1.0000   1.0000   1.0000   1.0000
     1.0000   1.0000   1.0000   1.0000   1.0000   1.0000   1.0000   1.0000
     1.0000   1.0000   1.0000   1.0000   1.0000   1.0000   1.0000   1.0000
     1.0000   1.0000   1.0000   1.0000   1.0000   1.0000   1.0000   1.0000
     1.0000   1.0000   1.0000   1.0000   1.0000   1.0000   1.0000   1.0000
     1.0000   1.0000   1.0000   1.0000   1.0000   1.0000   1.0000   1.0000
     1.0000   1.0000   1.0000   1.0000   1.0000   1.0000   1.0000   1.0000
     1.0000   1.0000   1.0000   1.0000   1.0000   1.0000   1.0000   1.0000
     1.0000   1.0000   1.0000   1.0000   1.0000   1.0000   1.0000   1.0000
     1.0000   1.0000   1.0000   1.0000   1.0000   1.0000   1.0000   1.0000
     1.0000   1.0000   1.0000   1.0000   1.0000   1.0000   1.0000   1.0000
     1.0000   1.0000   1.0000   1.0000   1.0000   1.0000   1.0000   1.0000
     1.0000   1.0000   1.0000   1.0000   1.0000   1.0000   1.0000   1.0000
     1.0000   1.0000   1.0000   1.0000   1.0000   1.0000   1.0000   1.0000
     1.0000   1.0000   1.0000   1.0000   1.0000   1.0000   1.0000   1.0000
     1.0000   1.0000   1.0000   1.0000   1.0000   1.0000

          k = 0.0001-0.0001 0.2674 ( 45366 PWs)   bands (ev):

  -115.6381-115.6368-115.6288-115.6272-115.6225-115.6224-115.6211-115.6208
  -115.6195-115.6188-115.6187-115.6185-115.6182-115.6176-115.6159-115.6144
  -115.6136-115.6136-115.6131-115.6120-115.6119-115.6013 -69.9968 -69.9943
   -69.9938 -69.9923 -69.9914 -69.9912 -69.9881 -69.9861 -69.9846 -69.9845
   -69.9831 -69.9825 -69.9820 -69.9818 -69.9807 -69.9799 -69.9794 -69.9785
   -69.9783 -69.9782 -69.9779 -69.9777 -69.9774 -69.9773 -69.9767 -69.9765
   -69.9762 -69.9761 -69.9759 -69.9755 -69.9753 -69.9749 -69.9746 -69.9744
   -69.9743 -69.9740 -69.9738 -69.9737 -69.9733 -69.9731 -69.9728 -69.9725
   -69.9723 -69.9723 -69.9720 -69.9714 -69.9710 -69.9701 -69.9700 -69.9698
   -69.9697 -69.9694 -69.9690 -69.9685 -69.9673 -69.9672 -69.9668 -69.9663
   -69.9661 -69.9655 -69.9646 -69.9640 -69.9608 -69.9601 -69.9581 -69.9541
   -65.0957 -65.0945 -65.0927 -65.0884 -65.0833 -65.0821 -65.0806 -65.0740
   -65.0708 -65.0707 -65.0611 -65.0553 -65.0475 -65.0382 -32.0871 -32.0865
   -32.0841 -32.0830 -32.0827 -32.0809 -32.0803 -32.0790 -32.0771 -32.0770
   -32.0760 -32.0739 -32.0735 -32.0720 -32.0694 -32.0685 -32.0683 -32.0678
   -32.0659 -32.0653 -32.0648 -32.0610 -32.0601 -32.0600 -32.0590 -32.0583
   -32.0568 -32.0560 -32.0534 -32.0512 -32.0484 -32.0452 -32.0447 -32.0423
   -32.0412 -32.0387 -32.0340 -32.0311 -32.0292 -32.0260 -32.0229 -32.0219
   -10.1907 -10.0300  -9.8195  -9.8024  -9.7593  -9.7473  -9.7031  -9.6703
    -9.6505  -9.6358  -9.6166  -9.5903  -9.5678  -9.5381  -9.5249  -9.5003
    -9.4602  -9.4513  -9.4212  -9.4024  -9.3940  -9.3581  -9.3514  -9.3296
    -9.3050  -9.3017  -9.2835  -9.2691  -9.2612  -9.2504  -9.2421  -9.2326
    -9.1532  -9.1392  -9.1070  -9.0689   1.6017   1.6189   1.6337   1.6485
     1.6707   1.6842   1.7027   1.7156   1.7342   1.7440   1.7618   1.7783
     1.8132   1.8262   1.8601   1.8886   1.8992   1.9058   1.9184   1.9354
     1.9589   1.9678   1.9789   2.0071   2.0131   2.0244   2.0378   2.0528
     2.0659   2.0728   2.0784   2.0918   2.1095   2.1198   2.1291   2.1453
     2.1577   2.1748   2.1819   2.1908   2.2078   2.2193   2.2289   2.2391
     2.2462   2.2521   2.2673   2.2848   2.2900   2.2917   2.3076   2.3209
     2.3356   2.3521   2.3710   2.4021   2.4159   2.4324   2.4470   2.4643
     2.4855   2.5035   2.5146   2.5286   2.5499   2.5719   2.5845   2.5923
     2.6093   2.6302   2.6438   2.6587   2.6657   2.6806   2.6996   2.7106
     2.7210   2.7291   2.7450   2.7641   2.7831   2.8109   2.8161   2.8226
     2.8506   2.8576   2.8716   2.9017   2.9144   2.9252   2.9487   2.9548
     2.9890   3.0050   3.0117   3.0160   3.0325   3.0405   3.0522   3.0588
     3.0720   3.0842   3.0969   3.0995   3.1073   3.1173   3.1425   3.1521
     3.1659   3.1967   3.3094   3.3909   3.4461   3.4706   3.5239   3.5450
     3.5684   3.5896   3.6162   3.6445   3.6735   3.7105   3.7354   3.7552
     3.7917   3.8183   3.8706   3.8898   3.9260   3.9563   3.9953   4.0492
     4.0828   4.1346   4.1476   4.2221   4.2254   4.2855   4.3073   4.3457
     4.3693   4.4128   4.4184   4.4411   4.4834   4.5323   4.5956   4.6215
     4.7033   4.7758   4.8944   4.9578   4.9811   5.0557   5.1096   5.1794
     5.2012   5.2271   5.2582   5.3181   5.3320   5.3668   5.3845   5.4221
     5.4400   5.4869   5.5108   5.5275   5.5639   5.5885   5.6216   5.6282
     5.6503   5.6690   5.6854   5.7374   5.7690   5.7968   5.8361   5.8556
     5.8940   5.9187   5.9369   6.0257   6.0558   6.0983   6.1072   6.1543
     6.1773   6.1921   6.2155   6.2531   6.2789   6.3071   6.3232   6.3644
     6.3920   6.4130   6.4217   6.4448   6.4670   6.4973   6.5137   6.5271
     6.5500   6.5608   6.5682   6.5868   6.6135   6.6422   6.6694   6.7114
     6.7563   6.8207   6.9248   6.9568   7.0745   7.0964

     occupation numbers 
     1.0000   1.0000   1.0000   1.0000   1.0000   1.0000   1.0000   1.0000
     1.0000   1.0000   1.0000   1.0000   1.0000   1.0000   1.0000   1.0000
     1.0000   1.0000   1.0000   1.0000   1.0000   1.0000   1.0000   1.0000
     1.0000   1.0000   1.0000   1.0000   1.0000   1.0000   1.0000   1.0000
     1.0000   1.0000   1.0000   1.0000   1.0000   1.0000   1.0000   1.0000
     1.0000   1.0000   1.0000   1.0000   1.0000   1.0000   1.0000   1.0000
     1.0000   1.0000   1.0000   1.0000   1.0000   1.0000   1.0000   1.0000
     1.0000   1.0000   1.0000   1.0000   1.0000   1.0000   1.0000   1.0000
     1.0000   1.0000   1.0000   1.0000   1.0000   1.0000   1.0000   1.0000
     1.0000   1.0000   1.0000   1.0000   1.0000   1.0000   1.0000   1.0000
     1.0000   1.0000   1.0000   1.0000   1.0000   1.0000   1.0000   1.0000
     1.0000   1.0000   1.0000   1.0000   1.0000   1.0000   1.0000   1.0000
     1.0000   1.0000   1.0000   1.0000   1.0000   1.0000   1.0000   1.0000
     1.0000   1.0000   1.0000   1.0000   1.0000   1.0000   1.0000   1.0000
     1.0000   1.0000   1.0000   1.0000   1.0000   1.0000   1.0000   1.0000
     1.0000   1.0000   1.0000   1.0000   1.0000   1.0000   1.0000   1.0000
     1.0000   1.0000   1.0000   1.0000   1.0000   1.0000   1.0000   1.0000
     1.0000   1.0000   1.0000   1.0000   1.0000   1.0000   1.0000   1.0000
     1.0000   1.0000   1.0000   1.0000   1.0000   1.0000   1.0000   1.0000
     1.0000   1.0000   1.0000   1.0000   1.0000   1.0000   1.0000   1.0000
     1.0000   1.0000   1.0000   1.0000   1.0000   1.0000   1.0000   1.0000
     1.0000   1.0000   1.0000   1.0000   1.0000   1.0000   1.0000   1.0000
     1.0000   1.0000   1.0000   1.0000   1.0000   1.0000   1.0000   1.0000
     1.0000   1.0000   1.0000   1.0000   1.0000   1.0000   1.0000   1.0000
     1.0000   1.0000   1.0000   1.0000   1.0000   1.0000   1.0000   1.0000
     1.0000   1.0000   1.0000   1.0000   1.0000   1.0000   1.0000   1.0000
     1.0000   1.0000   1.0000   1.0000   1.0000   1.0000   1.0000   1.0000
     1.0000   1.0000   1.0000   1.0000   1.0000   1.0000   1.0000   1.0000
     1.0000   1.0000   1.0000   1.0000   1.0000   1.0000   1.0000   1.0000
     1.0000   1.0000   1.0000   1.0000   1.0000   1.0000   1.0000   1.0000
     1.0000   1.0000   1.0000   1.0000   1.0000   1.0000   1.0000   1.0000
     1.0000   1.0000   1.0000   1.0000   1.0000   1.0000   1.0000   1.0000
     1.0000   1.0000   1.0000   1.0000   1.0000   1.0000   1.0000   1.0000
     1.0000   1.0000   1.0000   1.0000   1.0000   1.0000   1.0000   1.0000
     1.0000   1.0000   1.0000   1.0000   1.0000   1.0000   1.0000   1.0000
     1.0000   1.0000   1.0000   1.0000   1.0000   1.0000   1.0000   1.0000
     1.0000   1.0000   1.0000   1.0000   1.0000   1.0000   1.0000   1.0000
     1.0000   1.0000   1.0000   1.0000   1.0000   1.0000   1.0000   1.0000
     1.0000   1.0000   1.0000   1.0000   1.0000   1.0000   1.0000   1.0000
     1.0000   1.0000   1.0000   1.0000   1.0000   1.0000   1.0000   1.0000
     1.0000   1.0000   1.0000   1.0000   1.0000   1.0000   1.0000   1.0000
     1.0000   1.0000   1.0000   1.0000   1.0000   1.0000   1.0000   1.0000
     1.0000   1.0000   1.0000   1.0000   1.0000   1.0000   1.0000   1.0000
     1.0000   1.0000   1.0000   1.0000   1.0000   1.0000   1.0000   1.0000
     1.0000   1.0000   1.0000   1.0000   1.0000   1.0000   1.0000   1.0000
     1.0000   1.0000   1.0000   1.0000   1.0000   1.0000   1.0000   1.0000
     1.0000   1.0000   1.0000   1.0000   1.0000   1.0000   1.0000   1.0000
     1.0000   1.0000   1.0000   1.0000   1.0000   1.0000   1.0000   1.0000
     1.0000   1.0000   1.0000   1.0000   1.0000   1.0000   1.0000   1.0000
     1.0000   1.0000   1.0000   1.0000   1.0000   1.0000

          k = 0.0002-0.0001 0.4012 ( 45455 PWs)   bands (ev):

  -115.6381-115.6368-115.6288-115.6272-115.6225-115.6224-115.6211-115.6208
  -115.6195-115.6188-115.6187-115.6185-115.6182-115.6176-115.6159-115.6144
  -115.6136-115.6136-115.6131-115.6120-115.6119-115.6013 -69.9968 -69.9943
   -69.9938 -69.9923 -69.9914 -69.9912 -69.9881 -69.9861 -69.9846 -69.9845
   -69.9831 -69.9825 -69.9820 -69.9818 -69.9807 -69.9799 -69.9794 -69.9785
   -69.9783 -69.9782 -69.9779 -69.9777 -69.9774 -69.9773 -69.9767 -69.9765
   -69.9762 -69.9761 -69.9759 -69.9755 -69.9753 -69.9749 -69.9746 -69.9744
   -69.9743 -69.9740 -69.9738 -69.9737 -69.9733 -69.9731 -69.9728 -69.9725
   -69.9723 -69.9723 -69.9720 -69.9714 -69.9710 -69.9701 -69.9700 -69.9698
   -69.9697 -69.9694 -69.9690 -69.9685 -69.9673 -69.9672 -69.9668 -69.9663
   -69.9661 -69.9655 -69.9646 -69.9640 -69.9608 -69.9601 -69.9581 -69.9541
   -65.0957 -65.0945 -65.0927 -65.0884 -65.0833 -65.0821 -65.0806 -65.0740
   -65.0708 -65.0707 -65.0611 -65.0553 -65.0475 -65.0382 -32.0871 -32.0864
   -32.0842 -32.0830 -32.0827 -32.0809 -32.0803 -32.0789 -32.0771 -32.0770
   -32.0760 -32.0741 -32.0735 -32.0720 -32.0693 -32.0685 -32.0683 -32.0678
   -32.0659 -32.0653 -32.0648 -32.0611 -32.0601 -32.0600 -32.0590 -32.0583
   -32.0568 -32.0560 -32.0534 -32.0513 -32.0484 -32.0452 -32.0447 -32.0423
   -32.0412 -32.0387 -32.0340 -32.0311 -32.0292 -32.0260 -32.0229 -32.0219
   -10.1566 -10.0854  -9.8044  -9.7891  -9.7545  -9.7419  -9.7009  -9.6742
    -9.6664  -9.6354  -9.6145  -9.5959  -9.5753  -9.5399  -9.5289  -9.5064
    -9.4695  -9.4460  -9.4085  -9.3956  -9.3827  -9.3568  -9.3452  -9.3295
    -9.3113  -9.2969  -9.2800  -9.2689  -9.2580  -9.2489  -9.2419  -9.2397
    -9.1578  -9.1411  -9.1086  -9.0722   1.6093   1.6218   1.6450   1.6576
     1.6829   1.6929   1.7120   1.7182   1.7346   1.7673   1.7781   1.7968
     1.8237   1.8344   1.8696   1.9010   1.9076   1.9161   1.9249   1.9399
     1.9529   1.9610   1.9800   1.9950   2.0076   2.0139   2.0333   2.0430
     2.0520   2.0614   2.0739   2.0959   2.0995   2.1177   2.1221   2.1454
     2.1541   2.1736   2.1824   2.1988   2.2081   2.2193   2.2353   2.2427
     2.2481   2.2597   2.2690   2.2762   2.2888   2.2968   2.3087   2.3233
     2.3369   2.3422   2.3599   2.3646   2.3780   2.3929   2.4328   2.4407
     2.4729   2.4896   2.5024   2.5204   2.5342   2.5555   2.5703   2.5925
     2.6077   2.6206   2.6310   2.6553   2.6617   2.6755   2.6788   2.6987
     2.7117   2.7267   2.7455   2.7573   2.7849   2.7958   2.8216   2.8285
     2.8386   2.8565   2.8689   2.8959   2.9069   2.9271   2.9481   2.9633
     2.9850   2.9980   3.0140   3.0275   3.0317   3.0502   3.0564   3.0653
     3.0708   3.0875   3.0993   3.1064   3.1081   3.1147   3.1356   3.1521
     3.1644   3.1957   3.3815   3.4241   3.4525   3.4954   3.5259   3.5520
     3.5740   3.5796   3.6181   3.6365   3.6943   3.7156   3.7405   3.7724
     3.8276   3.8631   3.8872   3.9259   3.9484   3.9709   3.9894   4.0290
     4.0554   4.0860   4.1467   4.2224   4.2428   4.2727   4.2888   4.3637
     4.3914   4.4190   4.4466   4.5101   4.5543   4.5771   4.6477   4.6695
     4.7399   4.7947   4.8820   4.9315   4.9974   5.0443   5.0998   5.1176
     5.1425   5.1720   5.2096   5.2363   5.2560   5.2876   5.3313   5.3625
     5.4895   5.5154   5.5389   5.5615   5.5789   5.5990   5.6387   5.6538
     5.6867   5.6982   5.7216   5.7413   5.7557   5.7734   5.7966   5.8040
     5.8232   5.8450   5.8660   5.9259   6.0624   6.1081   6.1301   6.1511
     6.1972   6.2166   6.2432   6.2605   6.3017   6.3214   6.3445   6.4082
     6.4180   6.4388   6.4511   6.4837   6.5049   6.5150   6.5293   6.5417
     6.5625   6.5738   6.5872   6.6049   6.6271   6.6324   6.6469   6.6790
     6.6813   6.7177   6.9601   6.9789   7.0594   7.0825

     occupation numbers 
     1.0000   1.0000   1.0000   1.0000   1.0000   1.0000   1.0000   1.0000
     1.0000   1.0000   1.0000   1.0000   1.0000   1.0000   1.0000   1.0000
     1.0000   1.0000   1.0000   1.0000   1.0000   1.0000   1.0000   1.0000
     1.0000   1.0000   1.0000   1.0000   1.0000   1.0000   1.0000   1.0000
     1.0000   1.0000   1.0000   1.0000   1.0000   1.0000   1.0000   1.0000
     1.0000   1.0000   1.0000   1.0000   1.0000   1.0000   1.0000   1.0000
     1.0000   1.0000   1.0000   1.0000   1.0000   1.0000   1.0000   1.0000
     1.0000   1.0000   1.0000   1.0000   1.0000   1.0000   1.0000   1.0000
     1.0000   1.0000   1.0000   1.0000   1.0000   1.0000   1.0000   1.0000
     1.0000   1.0000   1.0000   1.0000   1.0000   1.0000   1.0000   1.0000
     1.0000   1.0000   1.0000   1.0000   1.0000   1.0000   1.0000   1.0000
     1.0000   1.0000   1.0000   1.0000   1.0000   1.0000   1.0000   1.0000
     1.0000   1.0000   1.0000   1.0000   1.0000   1.0000   1.0000   1.0000
     1.0000   1.0000   1.0000   1.0000   1.0000   1.0000   1.0000   1.0000
     1.0000   1.0000   1.0000   1.0000   1.0000   1.0000   1.0000   1.0000
     1.0000   1.0000   1.0000   1.0000   1.0000   1.0000   1.0000   1.0000
     1.0000   1.0000   1.0000   1.0000   1.0000   1.0000   1.0000   1.0000
     1.0000   1.0000   1.0000   1.0000   1.0000   1.0000   1.0000   1.0000
     1.0000   1.0000   1.0000   1.0000   1.0000   1.0000   1.0000   1.0000
     1.0000   1.0000   1.0000   1.0000   1.0000   1.0000   1.0000   1.0000
     1.0000   1.0000   1.0000   1.0000   1.0000   1.0000   1.0000   1.0000
     1.0000   1.0000   1.0000   1.0000   1.0000   1.0000   1.0000   1.0000
     1.0000   1.0000   1.0000   1.0000   1.0000   1.0000   1.0000   1.0000
     1.0000   1.0000   1.0000   1.0000   1.0000   1.0000   1.0000   1.0000
     1.0000   1.0000   1.0000   1.0000   1.0000   1.0000   1.0000   1.0000
     1.0000   1.0000   1.0000   1.0000   1.0000   1.0000   1.0000   1.0000
     1.0000   1.0000   1.0000   1.0000   1.0000   1.0000   1.0000   1.0000
     1.0000   1.0000   1.0000   1.0000   1.0000   1.0000   1.0000   1.0000
     1.0000   1.0000   1.0000   1.0000   1.0000   1.0000   1.0000   1.0000
     1.0000   1.0000   1.0000   1.0000   1.0000   1.0000   1.0000   1.0000
     1.0000   1.0000   1.0000   1.0000   1.0000   1.0000   1.0000   1.0000
     1.0000   1.0000   1.0000   1.0000   1.0000   1.0000   1.0000   1.0000
     1.0000   1.0000   1.0000   1.0000   1.0000   1.0000   1.0000   1.0000
     1.0000   1.0000   1.0000   1.0000   1.0000   1.0000   1.0000   1.0000
     1.0000   1.0000   1.0000   1.0000   1.0000   1.0000   1.0000   1.0000
     1.0000   1.0000   1.0000   1.0000   1.0000   1.0000   1.0000   1.0000
     1.0000   1.0000   1.0000   1.0000   1.0000   1.0000   1.0000   1.0000
     1.0000   1.0000   1.0000   1.0000   1.0000   1.0000   1.0000   1.0000
     1.0000   1.0000   1.0000   1.0000   1.0000   1.0000   1.0000   1.0000
     1.0000   1.0000   1.0000   1.0000   1.0000   1.0000   1.0000   1.0000
     1.0000   1.0000   1.0000   1.0000   1.0000   1.0000   1.0000   1.0000
     1.0000   1.0000   1.0000   1.0000   1.0000   1.0000   1.0000   1.0000
     1.0000   1.0000   1.0000   1.0000   1.0000   1.0000   1.0000   1.0000
     1.0000   1.0000   1.0000   1.0000   1.0000   1.0000   1.0000   1.0000
     1.0000   1.0000   1.0000   1.0000   1.0000   1.0000   1.0000   1.0000
     1.0000   1.0000   1.0000   1.0000   1.0000   1.0000   1.0000   1.0000
     1.0000   1.0000   1.0000   1.0000   1.0000   1.0000   1.0000   1.0000
     1.0000   1.0000   1.0000   1.0000   1.0000   1.0000   1.0000   1.0000
     1.0000   1.0000   1.0000   1.0000   1.0000   1.0000   1.0000   1.0000
     1.0000   1.0000   1.0000   1.0000   1.0000   1.0000

          k = 0.0002-0.0001 0.5349 ( 45455 PWs)   bands (ev):

  -115.6381-115.6368-115.6288-115.6272-115.6225-115.6224-115.6211-115.6208
  -115.6195-115.6188-115.6187-115.6185-115.6182-115.6176-115.6159-115.6144
  -115.6136-115.6136-115.6131-115.6120-115.6119-115.6013 -69.9968 -69.9943
   -69.9938 -69.9923 -69.9914 -69.9912 -69.9881 -69.9861 -69.9846 -69.9845
   -69.9831 -69.9825 -69.9820 -69.9818 -69.9807 -69.9799 -69.9794 -69.9785
   -69.9783 -69.9782 -69.9779 -69.9777 -69.9774 -69.9773 -69.9767 -69.9765
   -69.9762 -69.9761 -69.9759 -69.9755 -69.9753 -69.9749 -69.9746 -69.9744
   -69.9743 -69.9740 -69.9738 -69.9737 -69.9733 -69.9731 -69.9728 -69.9725
   -69.9723 -69.9723 -69.9720 -69.9714 -69.9710 -69.9701 -69.9700 -69.9698
   -69.9697 -69.9694 -69.9690 -69.9685 -69.9673 -69.9672 -69.9668 -69.9663
   -69.9661 -69.9655 -69.9646 -69.9640 -69.9608 -69.9601 -69.9581 -69.9541
   -65.0957 -65.0945 -65.0927 -65.0884 -65.0833 -65.0821 -65.0806 -65.0740
   -65.0708 -65.0707 -65.0611 -65.0553 -65.0475 -65.0382 -32.0871 -32.0864
   -32.0842 -32.0830 -32.0827 -32.0809 -32.0803 -32.0789 -32.0771 -32.0770
   -32.0760 -32.0741 -32.0735 -32.0720 -32.0693 -32.0685 -32.0683 -32.0678
   -32.0659 -32.0653 -32.0648 -32.0611 -32.0601 -32.0600 -32.0590 -32.0583
   -32.0568 -32.0560 -32.0534 -32.0513 -32.0484 -32.0452 -32.0447 -32.0423
   -32.0412 -32.0387 -32.0340 -32.0311 -32.0292 -32.0260 -32.0229 -32.0219
   -10.1566 -10.0854  -9.8044  -9.7891  -9.7545  -9.7419  -9.7009  -9.6742
    -9.6664  -9.6354  -9.6145  -9.5959  -9.5753  -9.5399  -9.5289  -9.5064
    -9.4695  -9.4460  -9.4085  -9.3956  -9.3827  -9.3568  -9.3452  -9.3295
    -9.3113  -9.2969  -9.2800  -9.2689  -9.2580  -9.2489  -9.2419  -9.2397
    -9.1578  -9.1411  -9.1086  -9.0722   1.6093   1.6218   1.6450   1.6576
     1.6829   1.6929   1.7120   1.7182   1.7346   1.7673   1.7781   1.7968
     1.8237   1.8344   1.8696   1.9010   1.9076   1.9161   1.9249   1.9399
     1.9529   1.9610   1.9800   1.9950   2.0076   2.0139   2.0333   2.0430
     2.0520   2.0614   2.0739   2.0959   2.0995   2.1177   2.1221   2.1454
     2.1541   2.1736   2.1824   2.1988   2.2081   2.2193   2.2353   2.2427
     2.2481   2.2597   2.2690   2.2762   2.2888   2.2968   2.3087   2.3233
     2.3369   2.3422   2.3599   2.3646   2.3780   2.3929   2.4328   2.4407
     2.4729   2.4896   2.5024   2.5204   2.5342   2.5555   2.5703   2.5925
     2.6077   2.6206   2.6310   2.6553   2.6617   2.6755   2.6788   2.6987
     2.7117   2.7267   2.7455   2.7573   2.7849   2.7958   2.8216   2.8285
     2.8386   2.8565   2.8689   2.8959   2.9069   2.9271   2.9481   2.9633
     2.9850   2.9980   3.0140   3.0275   3.0317   3.0502   3.0564   3.0653
     3.0708   3.0875   3.0993   3.1064   3.1081   3.1147   3.1356   3.1521
     3.1644   3.1957   3.3815   3.4241   3.4525   3.4954   3.5259   3.5520
     3.5740   3.5796   3.6181   3.6365   3.6943   3.7156   3.7405   3.7724
     3.8276   3.8631   3.8872   3.9259   3.9484   3.9709   3.9894   4.0290
     4.0554   4.0860   4.1467   4.2224   4.2428   4.2727   4.2888   4.3637
     4.3914   4.4190   4.4466   4.5101   4.5543   4.5771   4.6477   4.6695
     4.7399   4.7947   4.8820   4.9315   4.9974   5.0443   5.0998   5.1176
     5.1425   5.1720   5.2096   5.2363   5.2560   5.2876   5.3313   5.3625
     5.4895   5.5154   5.5389   5.5615   5.5789   5.5990   5.6387   5.6538
     5.6867   5.6982   5.7216   5.7413   5.7557   5.7734   5.7966   5.8040
     5.8232   5.8450   5.8660   5.9259   6.0624   6.1081   6.1301   6.1511
     6.1972   6.2166   6.2432   6.2605   6.3017   6.3214   6.3445   6.4082
     6.4180   6.4388   6.4511   6.4837   6.5049   6.5150   6.5293   6.5417
     6.5625   6.5738   6.5872   6.6049   6.6271   6.6324   6.6469   6.6790
     6.6813   6.7177   6.9601   6.9789   7.0594   7.0825

     occupation numbers 
     1.0000   1.0000   1.0000   1.0000   1.0000   1.0000   1.0000   1.0000
     1.0000   1.0000   1.0000   1.0000   1.0000   1.0000   1.0000   1.0000
     1.0000   1.0000   1.0000   1.0000   1.0000   1.0000   1.0000   1.0000
     1.0000   1.0000   1.0000   1.0000   1.0000   1.0000   1.0000   1.0000
     1.0000   1.0000   1.0000   1.0000   1.0000   1.0000   1.0000   1.0000
     1.0000   1.0000   1.0000   1.0000   1.0000   1.0000   1.0000   1.0000
     1.0000   1.0000   1.0000   1.0000   1.0000   1.0000   1.0000   1.0000
     1.0000   1.0000   1.0000   1.0000   1.0000   1.0000   1.0000   1.0000
     1.0000   1.0000   1.0000   1.0000   1.0000   1.0000   1.0000   1.0000
     1.0000   1.0000   1.0000   1.0000   1.0000   1.0000   1.0000   1.0000
     1.0000   1.0000   1.0000   1.0000   1.0000   1.0000   1.0000   1.0000
     1.0000   1.0000   1.0000   1.0000   1.0000   1.0000   1.0000   1.0000
     1.0000   1.0000   1.0000   1.0000   1.0000   1.0000   1.0000   1.0000
     1.0000   1.0000   1.0000   1.0000   1.0000   1.0000   1.0000   1.0000
     1.0000   1.0000   1.0000   1.0000   1.0000   1.0000   1.0000   1.0000
     1.0000   1.0000   1.0000   1.0000   1.0000   1.0000   1.0000   1.0000
     1.0000   1.0000   1.0000   1.0000   1.0000   1.0000   1.0000   1.0000
     1.0000   1.0000   1.0000   1.0000   1.0000   1.0000   1.0000   1.0000
     1.0000   1.0000   1.0000   1.0000   1.0000   1.0000   1.0000   1.0000
     1.0000   1.0000   1.0000   1.0000   1.0000   1.0000   1.0000   1.0000
     1.0000   1.0000   1.0000   1.0000   1.0000   1.0000   1.0000   1.0000
     1.0000   1.0000   1.0000   1.0000   1.0000   1.0000   1.0000   1.0000
     1.0000   1.0000   1.0000   1.0000   1.0000   1.0000   1.0000   1.0000
     1.0000   1.0000   1.0000   1.0000   1.0000   1.0000   1.0000   1.0000
     1.0000   1.0000   1.0000   1.0000   1.0000   1.0000   1.0000   1.0000
     1.0000   1.0000   1.0000   1.0000   1.0000   1.0000   1.0000   1.0000
     1.0000   1.0000   1.0000   1.0000   1.0000   1.0000   1.0000   1.0000
     1.0000   1.0000   1.0000   1.0000   1.0000   1.0000   1.0000   1.0000
     1.0000   1.0000   1.0000   1.0000   1.0000   1.0000   1.0000   1.0000
     1.0000   1.0000   1.0000   1.0000   1.0000   1.0000   1.0000   1.0000
     1.0000   1.0000   1.0000   1.0000   1.0000   1.0000   1.0000   1.0000
     1.0000   1.0000   1.0000   1.0000   1.0000   1.0000   1.0000   1.0000
     1.0000   1.0000   1.0000   1.0000   1.0000   1.0000   1.0000   1.0000
     1.0000   1.0000   1.0000   1.0000   1.0000   1.0000   1.0000   1.0000
     1.0000   1.0000   1.0000   1.0000   1.0000   1.0000   1.0000   1.0000
     1.0000   1.0000   1.0000   1.0000   1.0000   1.0000   1.0000   1.0000
     1.0000   1.0000   1.0000   1.0000   1.0000   1.0000   1.0000   1.0000
     1.0000   1.0000   1.0000   1.0000   1.0000   1.0000   1.0000   1.0000
     1.0000   1.0000   1.0000   1.0000   1.0000   1.0000   1.0000   1.0000
     1.0000   1.0000   1.0000   1.0000   1.0000   1.0000   1.0000   1.0000
     1.0000   1.0000   1.0000   1.0000   1.0000   1.0000   1.0000   1.0000
     1.0000   1.0000   1.0000   1.0000   1.0000   1.0000   1.0000   1.0000
     1.0000   1.0000   1.0000   1.0000   1.0000   1.0000   1.0000   1.0000
     1.0000   1.0000   1.0000   1.0000   1.0000   1.0000   1.0000   1.0000
     1.0000   1.0000   1.0000   1.0000   1.0000   1.0000   1.0000   1.0000
     1.0000   1.0000   1.0000   1.0000   1.0000   1.0000   1.0000   1.0000
     1.0000   1.0000   1.0000   1.0000   1.0000   1.0000   1.0000   1.0000
     1.0000   1.0000   1.0000   1.0000   1.0000   1.0000   1.0000   1.0000
     1.0000   1.0000   1.0000   1.0000   1.0000   1.0000   1.0000   1.0000
     1.0000   1.0000   1.0000   1.0000   1.0000   1.0000

          k = 0.0003-0.0002 0.6686 ( 45366 PWs)   bands (ev):

  -115.6381-115.6368-115.6288-115.6272-115.6225-115.6224-115.6211-115.6208
  -115.6195-115.6188-115.6187-115.6185-115.6182-115.6176-115.6159-115.6144
  -115.6136-115.6136-115.6131-115.6120-115.6119-115.6013 -69.9968 -69.9943
   -69.9938 -69.9923 -69.9914 -69.9912 -69.9881 -69.9861 -69.9846 -69.9845
   -69.9831 -69.9825 -69.9820 -69.9818 -69.9807 -69.9799 -69.9794 -69.9785
   -69.9783 -69.9782 -69.9779 -69.9777 -69.9774 -69.9773 -69.9767 -69.9765
   -69.9762 -69.9761 -69.9759 -69.9755 -69.9753 -69.9749 -69.9746 -69.9744
   -69.9743 -69.9740 -69.9738 -69.9737 -69.9733 -69.9731 -69.9728 -69.9725
   -69.9723 -69.9723 -69.9720 -69.9714 -69.9710 -69.9701 -69.9700 -69.9698
   -69.9697 -69.9694 -69.9690 -69.9685 -69.9673 -69.9672 -69.9668 -69.9663
   -69.9661 -69.9655 -69.9646 -69.9640 -69.9608 -69.9601 -69.9581 -69.9541
   -65.0957 -65.0945 -65.0927 -65.0884 -65.0833 -65.0821 -65.0806 -65.0740
   -65.0708 -65.0707 -65.0611 -65.0553 -65.0475 -65.0382 -32.0871 -32.0865
   -32.0841 -32.0830 -32.0827 -32.0809 -32.0803 -32.0790 -32.0771 -32.0770
   -32.0760 -32.0739 -32.0735 -32.0720 -32.0694 -32.0685 -32.0683 -32.0678
   -32.0659 -32.0653 -32.0648 -32.0610 -32.0601 -32.0600 -32.0590 -32.0583
   -32.0568 -32.0560 -32.0534 -32.0512 -32.0484 -32.0452 -32.0447 -32.0423
   -32.0412 -32.0387 -32.0340 -32.0311 -32.0292 -32.0260 -32.0229 -32.0219
   -10.1907 -10.0300  -9.8195  -9.8024  -9.7593  -9.7473  -9.7031  -9.6703
    -9.6505  -9.6358  -9.6166  -9.5903  -9.5678  -9.5381  -9.5249  -9.5003
    -9.4602  -9.4513  -9.4212  -9.4024  -9.3940  -9.3581  -9.3514  -9.3296
    -9.3050  -9.3017  -9.2835  -9.2691  -9.2612  -9.2504  -9.2421  -9.2326
    -9.1532  -9.1392  -9.1070  -9.0689   1.6017   1.6189   1.6337   1.6485
     1.6707   1.6842   1.7027   1.7156   1.7342   1.7440   1.7618   1.7783
     1.8132   1.8262   1.8601   1.8886   1.8992   1.9058   1.9184   1.9354
     1.9589   1.9678   1.9789   2.0071   2.0131   2.0244   2.0378   2.0528
     2.0659   2.0728   2.0784   2.0918   2.1095   2.1198   2.1291   2.1453
     2.1577   2.1748   2.1819   2.1908   2.2078   2.2193   2.2289   2.2391
     2.2462   2.2521   2.2673   2.2848   2.2900   2.2917   2.3076   2.3209
     2.3356   2.3521   2.3710   2.4021   2.4159   2.4324   2.4470   2.4643
     2.4855   2.5035   2.5146   2.5286   2.5499   2.5719   2.5845   2.5923
     2.6093   2.6302   2.6438   2.6587   2.6657   2.6806   2.6996   2.7106
     2.7210   2.7291   2.7450   2.7641   2.7831   2.8109   2.8161   2.8226
     2.8506   2.8576   2.8716   2.9017   2.9144   2.9252   2.9487   2.9548
     2.9890   3.0050   3.0117   3.0160   3.0325   3.0405   3.0522   3.0588
     3.0720   3.0842   3.0969   3.0995   3.1073   3.1173   3.1425   3.1521
     3.1659   3.1967   3.3094   3.3909   3.4461   3.4706   3.5239   3.5450
     3.5684   3.5896   3.6162   3.6445   3.6735   3.7105   3.7354   3.7552
     3.7917   3.8183   3.8706   3.8898   3.9260   3.9563   3.9953   4.0492
     4.0828   4.1346   4.1476   4.2221   4.2254   4.2855   4.3073   4.3457
     4.3693   4.4128   4.4184   4.4411   4.4834   4.5323   4.5956   4.6215
     4.7033   4.7758   4.8944   4.9578   4.9811   5.0557   5.1096   5.1794
     5.2012   5.2271   5.2582   5.3181   5.3320   5.3668   5.3845   5.4221
     5.4400   5.4869   5.5108   5.5275   5.5639   5.5885   5.6216   5.6282
     5.6503   5.6690   5.6854   5.7374   5.7690   5.7968   5.8361   5.8556
     5.8940   5.9187   5.9369   6.0257   6.0558   6.0983   6.1072   6.1543
     6.1773   6.1921   6.2155   6.2531   6.2789   6.3071   6.3232   6.3644
     6.3920   6.4130   6.4217   6.4448   6.4670   6.4973   6.5137   6.5271
     6.5500   6.5608   6.5682   6.5868   6.6135   6.6422   6.6694   6.7114
     6.7563   6.8207   6.9248   6.9568   7.0745   7.0964

     occupation numbers 
     1.0000   1.0000   1.0000   1.0000   1.0000   1.0000   1.0000   1.0000
     1.0000   1.0000   1.0000   1.0000   1.0000   1.0000   1.0000   1.0000
     1.0000   1.0000   1.0000   1.0000   1.0000   1.0000   1.0000   1.0000
     1.0000   1.0000   1.0000   1.0000   1.0000   1.0000   1.0000   1.0000
     1.0000   1.0000   1.0000   1.0000   1.0000   1.0000   1.0000   1.0000
     1.0000   1.0000   1.0000   1.0000   1.0000   1.0000   1.0000   1.0000
     1.0000   1.0000   1.0000   1.0000   1.0000   1.0000   1.0000   1.0000
     1.0000   1.0000   1.0000   1.0000   1.0000   1.0000   1.0000   1.0000
     1.0000   1.0000   1.0000   1.0000   1.0000   1.0000   1.0000   1.0000
     1.0000   1.0000   1.0000   1.0000   1.0000   1.0000   1.0000   1.0000
     1.0000   1.0000   1.0000   1.0000   1.0000   1.0000   1.0000   1.0000
     1.0000   1.0000   1.0000   1.0000   1.0000   1.0000   1.0000   1.0000
[...]
   -32.0839 -32.0830 -32.0827 -32.0809 -32.0803 -32.0791 -32.0771 -32.0770
   -32.0760 -32.0738 -32.0734 -32.0720 -32.0694 -32.0686 -32.0683 -32.0678
   -32.0659 -32.0653 -32.0648 -32.0610 -32.0601 -32.0600 -32.0590 -32.0583
   -32.0568 -32.0560 -32.0534 -32.0512 -32.0484 -32.0451 -32.0448 -32.0423
   -32.0412 -32.0387 -32.0340 -32.0311 -32.0292 -32.0260 -32.0229 -32.0219
   -10.1054 -10.0667  -9.8705  -9.8358  -9.7892  -9.7449  -9.7270  -9.7196
    -9.6450  -9.6091  -9.6017  -9.5812  -9.5428  -9.5290  -9.4916  -9.4743
    -9.4566  -9.4505  -9.4098  -9.3936  -9.3767  -9.3688  -9.3494  -9.3400
    -9.3320  -9.3273  -9.3068  -9.2700  -9.2605  -9.2565  -9.2354  -9.2141
    -9.1394  -9.1346  -9.1068  -9.0639   1.6178   1.6349   1.6525   1.6637
     1.6789   1.6844   1.6920   1.7269   1.7327   1.7530   1.7785   1.7874
     1.8154   1.8527   1.8630   1.8801   1.8962   1.9098   1.9115   1.9401
     1.9514   1.9738   1.9817   2.0006   2.0063   2.0145   2.0237   2.0563
     2.0722   2.0779   2.0829   2.1015   2.1079   2.1184   2.1374   2.1464
     2.1598   2.1670   2.1698   2.1899   2.1917   2.2021   2.2074   2.2262
     2.2344   2.2389   2.2488   2.2717   2.2779   2.2914   2.2989   2.3036
     2.3188   2.3292   2.3429   2.3595   2.3878   2.4010   2.4233   2.4535
     2.4950   2.4972   2.5149   2.5231   2.5508   2.5615   2.5833   2.6034
     2.6166   2.6325   2.6433   2.6570   2.6751   2.6834   2.7099   2.7199
     2.7322   2.7439   2.7642   2.7842   2.8011   2.8190   2.8452   2.8521
     2.8582   2.8647   2.9081   2.9133   2.9194   2.9363   2.9427   2.9470
     2.9735   2.9837   2.9949   3.0114   3.0213   3.0297   3.0392   3.0600
     3.0706   3.0833   3.0910   3.1024   3.1042   3.1292   3.1449   3.1519
     3.1679   3.2007   3.2157   3.2356   3.2933   3.3390   3.4065   3.4417
     3.4902   3.5205   3.5534   3.5693   3.6068   3.6306   3.6479   3.6888
     3.7453   3.7698   3.8496   3.8952   3.9030   4.0020   4.0369   4.0852
     4.1822   4.2021   4.2765   4.3661   4.4399   4.4680   4.5291   4.5581
     4.5960   4.6245   4.6588   4.6742   4.7140   4.7450   4.7635   4.7862
     4.8134   4.8415   4.8693   4.9002   4.9015   4.9992   5.0128   5.2155
     5.2216   5.2432   5.2744   5.2959   5.3045   5.3415   5.3561   5.3956
     5.4792   5.5150   5.5401   5.5643   5.6220   5.6412   5.6834   5.7110
     5.7462   5.7707   5.7830   5.8119   5.8427   5.8758   5.9115   5.9201
     5.9428   5.9817   5.9926   6.0202   6.0364   6.0549   6.0638   6.0823
     6.0870   6.1032   6.1252   6.1529   6.1608   6.1938   6.2017   6.2100
     6.2390   6.2660   6.2751   6.2870   6.3138   6.3265   6.3609   6.3858
     6.4013   6.4134   6.4640   6.4771   6.5313   6.5721   6.5951   6.6618
     6.6871   6.7007   6.8996   6.9526   6.9798   7.0379

     occupation numbers 
     1.0000   1.0000   1.0000   1.0000   1.0000   1.0000   1.0000   1.0000
     1.0000   1.0000   1.0000   1.0000   1.0000   1.0000   1.0000   1.0000
     1.0000   1.0000   1.0000   1.0000   1.0000   1.0000   1.0000   1.0000
     1.0000   1.0000   1.0000   1.0000   1.0000   1.0000   1.0000   1.0000
     1.0000   1.0000   1.0000   1.0000   1.0000   1.0000   1.0000   1.0000
     1.0000   1.0000   1.0000   1.0000   1.0000   1.0000   1.0000   1.0000
     1.0000   1.0000   1.0000   1.0000   1.0000   1.0000   1.0000   1.0000
     1.0000   1.0000   1.0000   1.0000   1.0000   1.0000   1.0000   1.0000
     1.0000   1.0000   1.0000   1.0000   1.0000   1.0000   1.0000   1.0000
     1.0000   1.0000   1.0000   1.0000   1.0000   1.0000   1.0000   1.0000
     1.0000   1.0000   1.0000   1.0000   1.0000   1.0000   1.0000   1.0000
     1.0000   1.0000   1.0000   1.0000   1.0000   1.0000   1.0000   1.0000
     1.0000   1.0000   1.0000   1.0000   1.0000   1.0000   1.0000   1.0000
     1.0000   1.0000   1.0000   1.0000   1.0000   1.0000   1.0000   1.0000
     1.0000   1.0000   1.0000   1.0000   1.0000   1.0000   1.0000   1.0000
     1.0000   1.0000   1.0000   1.0000   1.0000   1.0000   1.0000   1.0000
     1.0000   1.0000   1.0000   1.0000   1.0000   1.0000   1.0000   1.0000
     1.0000   1.0000   1.0000   1.0000   1.0000   1.0000   1.0000   1.0000
     1.0000   1.0000   1.0000   1.0000   1.0000   1.0000   1.0000   1.0000
     1.0000   1.0000   1.0000   1.0000   1.0000   1.0000   1.0000   1.0000
     1.0000   1.0000   1.0000   1.0000   1.0000   1.0000   1.0000   1.0000
     1.0000   1.0000   1.0000   1.0000   1.0000   1.0000   1.0000   1.0000
     1.0000   1.0000   1.0000   1.0000   1.0000   1.0000   1.0000   1.0000
     1.0000   1.0000   1.0000   1.0000   1.0000   1.0000   1.0000   1.0000
     1.0000   1.0000   1.0000   1.0000   1.0000   1.0000   1.0000   1.0000
     1.0000   1.0000   1.0000   1.0000   1.0000   1.0000   1.0000   1.0000
     1.0000   1.0000   1.0000   1.0000   1.0000   1.0000   1.0000   1.0000
     1.0000   1.0000   1.0000   1.0000   1.0000   1.0000   1.0000   1.0000
     1.0000   1.0000   1.0000   1.0000   1.0000   1.0000   1.0000   1.0000
     1.0000   1.0000   1.0000   1.0000   1.0000   1.0000   1.0000   1.0000
     1.0000   1.0000   1.0000   1.0000   1.0000   1.0000   1.0000   1.0000
     1.0000   1.0000   1.0000   1.0000   1.0000   1.0000   1.0000   1.0000
     1.0000   1.0000   1.0000   1.0000   1.0000   1.0000   1.0000   1.0000
     1.0000   1.0000   1.0000   1.0000   1.0000   1.0000   1.0000   1.0000
     1.0000   1.0000   1.0000   1.0000   1.0000   1.0000   1.0000   1.0000
     1.0000   1.0000   1.0000   1.0000   1.0000   1.0000   1.0000   1.0000
     1.0000   1.0000   1.0000   1.0000   1.0000   1.0000   1.0000   1.0000
     1.0000   1.0000   1.0000   1.0000   1.0000   1.0000   1.0000   1.0000
     1.0000   1.0000   1.0000   1.0000   1.0000   1.0000   1.0000   1.0000
     1.0000   1.0000   1.0000   1.0000   1.0000   1.0000   1.0000   1.0000
     1.0000   1.0000   1.0000   1.0000   1.0000   1.0000   1.0000   1.0000
     1.0000   1.0000   1.0000   1.0000   1.0000   1.0000   1.0000   1.0000
     1.0000   1.0000   1.0000   1.0000   1.0000   1.0000   1.0000   1.0000
     1.0000   1.0000   1.0000   1.0000   1.0000   1.0000   1.0000   1.0000
     1.0000   1.0000   1.0000   1.0000   1.0000   1.0000   1.0000   1.0000
     1.0000   1.0000   1.0000   1.0000   1.0000   1.0000   1.0000   1.0000
     1.0000   1.0000   1.0000   1.0000   1.0000   1.0000   1.0000   1.0000
     1.0000   1.0000   1.0000   1.0000   1.0000   1.0000   1.0000   1.0000
     1.0000   1.0000   1.0000   1.0000   1.0000   1.0000   1.0000   1.0000
     1.0000   1.0000   1.0000   1.0000   1.0000   1.0000

     highest occupied level (ev):     7.1148



               ==================================================
                            POLARIZATION CALCULATION
                         !!! NOT THOROUGHLY TESTED !!!
               --------------------------------------------------


                     K-POINTS STRINGS USED IN CALCULATIONS
                     ~~~~~~~~~~~~~~~~~~~~~~~~~~~~~~~~~~~~~

       G-vector along string (2 pi/a):  0.00039 -0.00024  0.93603
       Modulus of the vector (1/bohr):  0.31923
       Number of k-points per string:   8
       Number of different strings  :  10


                               IONIC POLARIZATION
                               ~~~~~~~~~~~~~~~~~~

        Note: (mod 1) means that the phases (angles ranging from
        -pi to pi) have been mapped to the interval [-1/2,+1/2) by
        dividing by 2*pi; (mod 2) refers to the interval [-1,+1)

  ============================================================================
    Ion    Species    Charge              Position                Phase
  ----------------------------------------------------------------------------
     1        Zn      20.000       0.1664  0.0972  0.2075    -0.11560 (mod 2)
     2        Zn      20.000       0.1676  0.0961  0.7421    -0.10635 (mod 2)
     3        Zn      20.000       0.0018  0.3862  0.2080    -0.10776 (mod 2)
     4        Zn      20.000      -0.0009  0.3854  0.7415    -0.12112 (mod 2)
     5        Zn      20.000      -0.1663  0.6733  0.2058    -0.15122 (mod 2)
     6        Mg      10.000      -0.1656  0.6765  0.7427     0.94958 (mod 2)
     7        Zn      20.000       0.5008  0.0965  0.2073    -0.11625 (mod 2)
     8        Zn      20.000       0.4995  0.0973  0.7419    -0.10859 (mod 2)
     9        Mg      10.000       0.3330  0.3859  0.2072    -0.05997 (mod 2)
    10        Mg      10.000       0.3334  0.3851  0.7409     0.93529 (mod 2)
    11        Mg      10.000       0.1651  0.6728  0.2082    -0.05199 (mod 2)
    12        Zn      20.000       0.1671  0.6754  0.7384    -0.17830 (mod 2)
    13        Mg      10.000       0.8339  0.0980  0.2050    -0.07835 (mod 2)
    14        Mg      10.000       0.8343  0.0965  0.7400     0.92948 (mod 2)
    15        Zn      20.000       0.6669  0.3855  0.2050    -0.15955 (mod 2)
    16        Mg      10.000       0.6659  0.3867  0.7439     0.96437 (mod 2)
    17        Zn      20.000       0.4980  0.6740  0.2076    -0.11277 (mod 2)
    18        Zn      20.000       0.5014  0.6743  0.7413    -0.12260 (mod 2)
    19        Zn      20.000      -0.0017  0.1929  0.4752     0.89506 (mod 2)
    20        Zn      20.000       0.0004  0.1923  1.0085     0.87921 (mod 2)
    21        Mg      10.000      -0.1688  0.4819  0.4744     0.43854 (mod 2)
    22        Zn      20.000      -0.1651  0.4812  1.0072     0.85232 (mod 2)
    23        Zn      20.000      -0.3318  0.7696  0.4740     0.86728 (mod 2)
    24        Mg      10.000      -0.3350  0.7694  1.0113    -0.53677 (mod 2)
    25        Zn      20.000       0.3328  0.1921  0.4734     0.86332 (mod 2)
    26        Mg      10.000       0.3330  0.1924  1.0093    -0.55219 (mod 2)
    27        Mg      10.000       0.1653  0.4795  0.4753     0.44885 (mod 2)
    28        Zn      20.000       0.1662  0.4824  1.0065     0.84046 (mod 2)
    29        Zn      20.000      -0.0018  0.7705  0.4750     0.88772 (mod 2)
    30        Zn      20.000       0.0020  0.7695  1.0090     0.88514 (mod 2)
    31        Mg      10.000       0.6647  0.1944  0.4742     0.44029 (mod 2)
    32        Zn      20.000       0.6672  0.1914  1.0062     0.84008 (mod 2)
    33        Zn      20.000       0.5018  0.4803  0.4749     0.89106 (mod 2)
    34        Zn      20.000       0.4982  0.4827  1.0084     0.87916 (mod 2)
    35        Mg      10.000       0.3351  0.7708  0.4735     0.43170 (mod 2)
    36        Mg      10.000       0.3318  0.7680  1.0066    -0.57834 (mod 2)
    37        O        6.000       0.1673  0.0956  0.0036     0.02052 (mod 2)
    38        O        6.000       0.1659  0.0962  0.5378    -0.97955 (mod 2)
    39        O        6.000       0.0009  0.3846  0.0037     0.02046 (mod 2)
    40        O        6.000      -0.0020  0.3856  0.5373    -0.98302 (mod 2)
    41        O        6.000      -0.1661  0.6738  0.0019     0.00926 (mod 2)
    42        O        6.000      -0.1667  0.6733  0.5398    -0.96983 (mod 2)
    43        O        6.000       0.5007  0.0962  0.0032     0.01881 (mod 2)
    44        O        6.000       0.4993  0.0966  0.5376    -0.97966 (mod 2)
    45        O        6.000       0.3328  0.3844  0.0037     0.02073 (mod 2)
    46        O        6.000       0.3330  0.3851  0.5375    -0.98096 (mod 2)
    47        O        6.000       0.1674  0.6729  0.0053     0.02905 (mod 2)
    48        O        6.000       0.1675  0.6736  0.5342     0.99965 (mod 2)
    49        O        6.000       0.8339  0.0944  0.0015     0.01045 (mod 2)
    50        O        6.000       0.8312  0.0965  0.5366    -0.98436 (mod 2)
    51        O        6.000       0.6671  0.3849  0.0007     0.00507 (mod 2)
    52        O        6.000       0.6672  0.3850  0.5404    -0.96419 (mod 2)
    53        O        6.000       0.4989  0.6741  0.0036     0.02047 (mod 2)
    54        O        6.000       0.5009  0.6739  0.5371    -0.98355 (mod 2)
    55        O        6.000      -0.0002  0.1931  0.2707    -0.47973 (mod 2)
    56        O        6.000       0.0002  0.1929  0.8045     0.51792 (mod 2)
    57        O        6.000      -0.1666  0.4812  0.2711    -0.47875 (mod 2)
    58        O        6.000      -0.1671  0.4833  0.8033     0.51055 (mod 2)
    59        O        6.000      -0.3336  0.7697  0.2696    -0.48763 (mod 2)
    60        O        6.000      -0.3327  0.7702  0.8079     0.53526 (mod 2)
    61        O        6.000       0.3337  0.1933  0.2691    -0.48816 (mod 2)
    62        O        6.000       0.3334  0.1936  0.8064     0.52910 (mod 2)
    63        O        6.000       0.1678  0.4818  0.2726    -0.46955 (mod 2)
    64        O        6.000       0.1667  0.4822  0.8023     0.50532 (mod 2)
    65        O        6.000      -0.0007  0.7701  0.2708    -0.48029 (mod 2)
    66        O        6.000       0.0014  0.7711  0.8051     0.52037 (mod 2)
    67        O        6.000       0.6675  0.1933  0.2709    -0.47733 (mod 2)
    68        O        6.000       0.6677  0.1933  0.8021     0.50588 (mod 2)
    69        O        6.000       0.5002  0.4812  0.2704    -0.48089 (mod 2)
    70        O        6.000       0.4989  0.4817  0.8046     0.51908 (mod 2)
    71        O        6.000       0.3314  0.7717  0.2698    -0.48501 (mod 2)
    72        O        6.000       0.3339  0.7707  0.8035     0.51213 (mod 2)
  ----------------------------------------------------------------------------
                                               IONIC PHASE:  -0.48119 (mod 2)
  ============================================================================


                            ELECTRONIC POLARIZATION
                            ~~~~~~~~~~~~~~~~~~~~~~~

        Note: (mod 1) means that the phases (angles ranging from
        -pi to pi) have been mapped to the interval [-1/2,+1/2) by
        dividing by 2*pi; (mod 2) refers to the interval [-1,+1)

  ============================================================================
   Spin    String     Weight      First k-point in string         Phase
  ----------------------------------------------------------------------------
    up        1      0.062500      0.0000  0.0000  0.0000     0.12365 (mod 1)
    up        2      0.125000     -0.0001  0.2886 -0.0001     0.12022 (mod 1)
    up        3      0.062500      0.0002 -0.5771  0.0001     0.11777 (mod 1)
    up        4      0.125000      0.2499  0.1442  0.0001     0.12023 (mod 1)
    up        5      0.125000      0.2498  0.4327 -0.0000     0.11777 (mod 1)
    up        6      0.125000      0.2502 -0.4330  0.0002     0.11775 (mod 1)
    up        7      0.125000      0.2501 -0.1444  0.0001     0.12022 (mod 1)
    up        8      0.062500     -0.4999 -0.2884 -0.0001     0.11780 (mod 1)
    up        9      0.125000     -0.5000  0.0002 -0.0002     0.11776 (mod 1)
    up       10      0.062500     -0.4996 -0.8655  0.0000     0.11775 (mod 1)
  ----------------------------------------------------------------------------
   down       1      0.062500      0.0000  0.0000  0.0000     0.12365 (mod 1)
   down       2      0.125000     -0.0001  0.2886 -0.0001     0.12022 (mod 1)
   down       3      0.062500      0.0002 -0.5771  0.0001     0.11777 (mod 1)
   down       4      0.125000      0.2499  0.1442  0.0001     0.12023 (mod 1)
   down       5      0.125000      0.2498  0.4327 -0.0000     0.11777 (mod 1)
   down       6      0.125000      0.2502 -0.4330  0.0002     0.11775 (mod 1)
   down       7      0.125000      0.2501 -0.1444  0.0001     0.12022 (mod 1)
   down       8      0.062500     -0.4999 -0.2884 -0.0001     0.11780 (mod 1)
   down       9      0.125000     -0.5000  0.0002 -0.0002     0.11776 (mod 1)
   down      10      0.062500     -0.4996 -0.8655  0.0000     0.11775 (mod 1)
  ----------------------------------------------------------------------------
                                        Average phase (up):   0.11905 (mod 1)
                                      Average phase (down):   0.11905 (mod 1)
                                          ELECTRONIC PHASE:   0.23811 (mod 2)
  ============================================================================


                               SUMMARY OF PHASES
                               ~~~~~~~~~~~~~~~~~

                          Ionic Phase: -0.48119 (mod 2)
                     Electronic Phase:  0.23811 (mod 2)
                          TOTAL PHASE: -0.24308 (mod 2)


                             VALUES OF POLARIZATION
                             ~~~~~~~~~~~~~~~~~~~~~~

        The calculation of phases done along the direction of vector 3
        of the reciprocal lattice gives the following contribution to
        the polarization vector (in different units, and being Omega
        the volume of the unit cell):

           P =  -4.7844843  (mod  39.3650466)  (e/Omega).bohr

           P =  -0.0008267  (mod   0.0068015)  e/bohr^2

           P =  -0.0472615  (mod   0.3888512)  C/m^2

        The polarization direction is:  (-0.00041 , 0.00026 , 1.00000 )


               ==================================================



     Writing output data file ZnO.save/
 
     init_run     :      2.76s CPU      5.22s WALL (       1 calls)
     electrons    :   1489.20s CPU   1519.13s WALL (       1 calls)

     Called by init_run:
     wfcinit      :      0.00s CPU      0.00s WALL (       1 calls)
     wfcinit:atom :      0.15s CPU      0.16s WALL (      80 calls)
     wfcinit:wfcr :     66.71s CPU     68.20s WALL (      80 calls)
     potinit      :      0.20s CPU      0.30s WALL (       1 calls)
     hinit0       :      1.74s CPU      3.90s WALL (       1 calls)

     Called by electrons:
     c_bands      :   1032.42s CPU   1060.18s WALL (       1 calls)
     v_of_rho     :      0.15s CPU      0.16s WALL (       1 calls)
     v_h          :      0.01s CPU      0.01s WALL (       1 calls)
     v_xc         :      0.14s CPU      0.15s WALL (       1 calls)
     newd         :      0.09s CPU      0.12s WALL (       1 calls)

     Called by c_bands:
     init_us_2    :      0.72s CPU      0.73s WALL (     220 calls)
     cegterg      :    963.07s CPU    989.26s WALL (      80 calls)

     Called by sum_band:

     Called by *egterg:
     h_psi        :    424.74s CPU    435.55s WALL (    1130 calls)
     s_psi        :     36.54s CPU     36.58s WALL (    1130 calls)
     g_psi        :      0.34s CPU      0.34s WALL (     970 calls)
     cdiaghg      :    291.94s CPU    297.75s WALL (    1050 calls)
     cegterg:over :     81.73s CPU     92.06s WALL (     970 calls)
     cegterg:upda :     91.55s CPU     91.81s WALL (     970 calls)
     cegterg:last :     85.50s CPU     85.79s WALL (     320 calls)
     cdiaghg:chol :     17.27s CPU     17.55s WALL (    1050 calls)
     cdiaghg:inve :     12.64s CPU     12.69s WALL (    1050 calls)
     cdiaghg:para :     46.48s CPU     50.02s WALL (    2100 calls)

     Called by h_psi:
     h_psi:pot    :    423.73s CPU    434.53s WALL (    1130 calls)
     h_psi:calbec :     55.96s CPU     63.93s WALL (    1130 calls)
     vloc_psi     :    330.60s CPU    333.31s WALL (    1130 calls)
     add_vuspsi   :     37.16s CPU     37.29s WALL (    1130 calls)

     General routines
     calbec       :    108.20s CPU    117.53s WALL (    1270 calls)
     fft          :      1.65s CPU      3.75s WALL (      13 calls)
     ffts         :      0.01s CPU      0.01s WALL (       1 calls)
     fftw         :    326.97s CPU    329.65s WALL (  725792 calls)
     interpolate  :      0.02s CPU      0.02s WALL (       1 calls)
 
     Parallel routines
     fft_scatt_xy :      9.27s CPU      9.35s WALL (  725806 calls)
     fft_scatt_yz :    282.13s CPU    286.56s WALL (  725806 calls)
 
     PWSCF        :  25m57.75s CPU  26m54.63s WALL

 
   This run was terminated on:   2:37:25  15Jul2022            

=------------------------------------------------------------------------------=
   JOB DONE.
=------------------------------------------------------------------------------=
