
     Program PWSCF v.6.4.1 starts on 15Jun2022 at 23:26:27 

     This program is part of the open-source Quantum ESPRESSO suite
     for quantum simulation of materials; please cite
         "P. Giannozzi et al., J. Phys.:Condens. Matter 21 395502 (2009);
         "P. Giannozzi et al., J. Phys.:Condens. Matter 29 465901 (2017);
          URL http://www.quantum-espresso.org", 
     in publications or presentations arising from this work. More details at
     http://www.quantum-espresso.org/quote

     Parallel version (MPI), running on    64 processors

     MPI processes distributed on     1 nodes
     K-points division:     npool     =       4
     R & G space division:  proc/nbgrp/npool/nimage =      16
     Waiting for input...
     Reading input from standard input
Warning: card &IONS ignored
Warning: card   UPSCALE           = 100.D0, ignored
Warning: card / ignored
Warning: card &CELL ignored
Warning: card   CELL_DYNAMICS     = 'BFGS' ignored
Warning: card   PRESS_CONV_THR    = 0.5D0 ignored
Warning: card   CELL_DOFREE = 'ALL' ignored
Warning: card / ignored

     Current dimensions of program PWSCF are:
     Max number of different atomic species (ntypx) = 10
     Max number of k-points (npk) =  40000
     Max angular momentum in pseudopotentials (lmaxx) =  3

     Subspace diagonalization in iterative solution of the eigenvalue problem:
     one sub-group per band group will be used
     scalapack distributed-memory algorithm (size of sub-group:  2*  2 procs)

 
     Parallelization info
     --------------------
     sticks:   dense  smooth     PW     G-vecs:    dense   smooth      PW
     Min         110      59     18                 4704     1831     318
     Max         112      60     19                 4707     1834     323
     Sum        1777     955    295                75291    29333    5131
 


     bravais-lattice index     =            0
     lattice parameter (alat)  =       6.5411  a.u.
     unit-cell volume          =     303.0772 (a.u.)^3
     number of atoms/cell      =            4
     number of atomic types    =            3
     number of electrons       =        42.00
     number of Kohn-Sham states=           21
     kinetic-energy cutoff     =      80.0000  Ry
     charge density cutoff     =     600.0000  Ry
     convergence threshold     =      1.0E-06
     mixing beta               =       0.5000
     number of iterations used =            8  plain     mixing
     Exchange-correlation      = SLA  PW   PSX  PSC ( 1  4 10  8 0 0)
     Using LIBXC version       =    4   3   4

     celldm(1)=   6.541092  celldm(2)=   0.000000  celldm(3)=   0.000000
     celldm(4)=   0.000000  celldm(5)=   0.000000  celldm(6)=   0.000000

     crystal axes: (cart. coord. in units of alat)
               a(1) = (   1.000000   0.000000  -0.000000 )  
               a(2) = (  -0.500000   0.866025   0.000000 )  
               a(3) = (   0.000000   0.000000   1.250466 )  

     reciprocal axes: (cart. coord. in units 2 pi/alat)
               b(1) = (  1.000000  0.577350 -0.000000 )  
               b(2) = ( -0.000000  1.154700 -0.000000 )  
               b(3) = (  0.000000 -0.000000  0.799702 )  


     PseudoPot. # 1 for Mg read from file:
     ./GBRV_PBEsol/mg_pbesol_v1.4.uspp.F.UPF
     MD5 check sum: 4059f37963cf5867752dbf5ab2400678
     Pseudo is Ultrasoft, Zval = 10.0
     Generated by new atomic code, or converted to UPF format
     Using radial grid of  821 points,  7 beta functions with: 
                l(1) =   0
                l(2) =   0
                l(3) =   0
                l(4) =   1
                l(5) =   1
                l(6) =   2
                l(7) =   2
     Q(r) pseudized with  8 coefficients,  rinner =    1.200   1.200   1.200
                                                       1.200   1.200

     PseudoPot. # 2 for Zn read from file:
     ./GBRV_PBEsol/zn_pbesol_v1.uspp.F.UPF
     MD5 check sum: 7d8615e52efe7c1e2b1899de8658bae2
     Pseudo is Ultrasoft, Zval = 20.0
     Generated by new atomic code, or converted to UPF format
     Using radial grid of  943 points,  6 beta functions with: 
                l(1) =   0
                l(2) =   0
                l(3) =   1
                l(4) =   1
                l(5) =   2
                l(6) =   2
     Q(r) pseudized with  8 coefficients,  rinner =    1.100   1.100   1.100
                                                       1.100   1.100

     PseudoPot. # 3 for O  read from file:
     ./GBRV_PBEsol/o_pbesol_v1.2.uspp.F.UPF
     MD5 check sum: 501638753501ef6325af9037351f7734
     Pseudo is Ultrasoft + core correction, Zval =  6.0
     Generated by new atomic code, or converted to UPF format
     Using radial grid of  737 points,  5 beta functions with: 
                l(1) =   0
                l(2) =   0
                l(3) =   1
                l(4) =   1
                l(5) =   2
     Q(r) pseudized with  8 coefficients,  rinner =    0.900   0.900   0.900
                                                       0.900   0.900

     atomic species   valence    mass     pseudopotential
        Mg            10.00    24.30500     Mg( 1.00)
        Zn            20.00    65.38000     Zn( 1.00)
        O              6.00    15.99900     O ( 1.00)

     No symmetry found


                                    s                        frac. trans.

      isym =  1     identity                                     

 cryst.   s( 1) = (     1          0          0      )
                  (     0          1          0      )
                  (     0          0          1      )

 cart.    s( 1) = (  1.0000000 -0.0000000  0.0000000 )
                  ( -0.0000000  1.0000000 -0.0000000 )
                  (  0.0000000  0.0000000  1.0000000 )


   Cartesian axes

     site n.     atom                  positions (alat units)
         1           O   tau(   1) = (   0.5000002   0.2886756   0.0091858  )
         2           O   tau(   2) = (   0.0000001   0.5773496   0.6344188  )
         3           Zn  tau(   3) = (   0.5000000   0.2886750   0.6552367  )
         4           Mg  tau(   4) = (  -0.0000001   0.5773514   1.2845772  )

   Crystallographic axes

     site n.     atom                  positions (cryst. coord.)
         1           O   tau(   1) = (  0.6666670  0.3333337  0.0073459  )
         2           O   tau(   2) = (  0.3333329  0.6666657  0.5073458  )
         3           Zn  tau(   3) = (  0.6666664  0.3333329  0.5239939  )
         4           Mg  tau(   4) = (  0.3333336  0.6666677  1.0272785  )

     number of k points=   260
                       cart. coord. in units 2pi/alat
        k(    1) = (   0.0000000   0.0000000   0.0000000), wk =   0.0039062
        k(    2) = (   0.0000000  -0.0000000   0.0999627), wk =   0.0078125
        k(    3) = (   0.0000000  -0.0000000   0.1999254), wk =   0.0078125
        k(    4) = (   0.0000000  -0.0000001   0.2998882), wk =   0.0078125
        k(    5) = (  -0.0000000   0.0000001  -0.3998509), wk =   0.0039062
        k(    6) = (  -0.0000000   0.1443375  -0.0000000), wk =   0.0078125
        k(    7) = (  -0.0000000   0.1443375   0.0999627), wk =   0.0078125
        k(    8) = (  -0.0000000   0.1443375   0.1999254), wk =   0.0078125
        k(    9) = (  -0.0000000   0.1443375   0.2998881), wk =   0.0078125
        k(   10) = (  -0.0000000   0.1443376  -0.3998509), wk =   0.0078125
        k(   11) = (  -0.0000000   0.1443376  -0.2998882), wk =   0.0078125
        k(   12) = (  -0.0000000   0.1443376  -0.1999255), wk =   0.0078125
        k(   13) = (  -0.0000000   0.1443376  -0.0999627), wk =   0.0078125
        k(   14) = (  -0.0000000   0.2886751  -0.0000000), wk =   0.0078125
        k(   15) = (  -0.0000000   0.2886751   0.0999627), wk =   0.0078125
        k(   16) = (  -0.0000000   0.2886750   0.1999254), wk =   0.0078125
        k(   17) = (  -0.0000000   0.2886750   0.2998881), wk =   0.0078125
        k(   18) = (  -0.0000000   0.2886752  -0.3998509), wk =   0.0078125
        k(   19) = (  -0.0000000   0.2886752  -0.2998882), wk =   0.0078125
        k(   20) = (  -0.0000000   0.2886751  -0.1999255), wk =   0.0078125
        k(   21) = (  -0.0000000   0.2886751  -0.0999628), wk =   0.0078125
        k(   22) = (  -0.0000000   0.4330126  -0.0000001), wk =   0.0078125
        k(   23) = (  -0.0000000   0.4330126   0.0999627), wk =   0.0078125
        k(   24) = (  -0.0000000   0.4330126   0.1999254), wk =   0.0078125
        k(   25) = (  -0.0000000   0.4330126   0.2998881), wk =   0.0078125
        k(   26) = (  -0.0000001   0.4330127  -0.3998509), wk =   0.0078125
        k(   27) = (  -0.0000001   0.4330127  -0.2998882), wk =   0.0078125
        k(   28) = (  -0.0000001   0.4330127  -0.1999255), wk =   0.0078125
        k(   29) = (  -0.0000001   0.4330127  -0.0999628), wk =   0.0078125
        k(   30) = (   0.0000001  -0.5773502   0.0000001), wk =   0.0039062
        k(   31) = (   0.0000001  -0.5773502   0.0999628), wk =   0.0078125
        k(   32) = (   0.0000001  -0.5773502   0.1999255), wk =   0.0078125
        k(   33) = (   0.0000001  -0.5773502   0.2998882), wk =   0.0078125
        k(   34) = (   0.0000001  -0.5773501  -0.3998508), wk =   0.0039062
        k(   35) = (   0.1250000   0.0721688  -0.0000000), wk =   0.0078125
        k(   36) = (   0.1250000   0.0721687   0.0999627), wk =   0.0078125
        k(   37) = (   0.1250000   0.0721687   0.1999254), wk =   0.0078125
        k(   38) = (   0.1250000   0.0721687   0.2998882), wk =   0.0078125
        k(   39) = (   0.1250000   0.0721688  -0.3998509), wk =   0.0078125
        k(   40) = (   0.1250000   0.0721688  -0.2998882), wk =   0.0078125
        k(   41) = (   0.1250000   0.0721688  -0.1999255), wk =   0.0078125
        k(   42) = (   0.1250000   0.0721688  -0.0999627), wk =   0.0078125
        k(   43) = (   0.1250000   0.2165063  -0.0000000), wk =   0.0078125
        k(   44) = (   0.1250000   0.2165063   0.0999627), wk =   0.0078125
        k(   45) = (   0.1250000   0.2165063   0.1999254), wk =   0.0078125
        k(   46) = (   0.1250000   0.2165062   0.2998881), wk =   0.0078125
        k(   47) = (   0.1250000   0.2165064  -0.3998509), wk =   0.0078125
        k(   48) = (   0.1250000   0.2165064  -0.2998882), wk =   0.0078125
        k(   49) = (   0.1250000   0.2165063  -0.1999255), wk =   0.0078125
        k(   50) = (   0.1250000   0.2165063  -0.0999628), wk =   0.0078125
        k(   51) = (   0.1250000   0.3608438  -0.0000001), wk =   0.0078125
        k(   52) = (   0.1250000   0.3608438   0.0999627), wk =   0.0078125
        k(   53) = (   0.1250000   0.3608438   0.1999254), wk =   0.0078125
        k(   54) = (   0.1250000   0.3608438   0.2998881), wk =   0.0078125
        k(   55) = (   0.1249999   0.3608439  -0.3998509), wk =   0.0078125
        k(   56) = (   0.1250000   0.3608439  -0.2998882), wk =   0.0078125
        k(   57) = (   0.1250000   0.3608439  -0.1999255), wk =   0.0078125
        k(   58) = (   0.1250000   0.3608439  -0.0999628), wk =   0.0078125
        k(   59) = (   0.1249999   0.5051814  -0.0000001), wk =   0.0078125
        k(   60) = (   0.1249999   0.5051814   0.0999626), wk =   0.0078125
        k(   61) = (   0.1249999   0.5051813   0.1999254), wk =   0.0078125
        k(   62) = (   0.1250000   0.5051813   0.2998881), wk =   0.0078125
        k(   63) = (   0.1249999   0.5051815  -0.3998510), wk =   0.0078125
        k(   64) = (   0.1249999   0.5051815  -0.2998882), wk =   0.0078125
        k(   65) = (   0.1249999   0.5051814  -0.1999255), wk =   0.0078125
        k(   66) = (   0.1249999   0.5051814  -0.0999628), wk =   0.0078125
        k(   67) = (   0.1250001  -0.5051814   0.0000001), wk =   0.0078125
        k(   68) = (   0.1250001  -0.5051814   0.0999628), wk =   0.0078125
        k(   69) = (   0.1250001  -0.5051815   0.1999255), wk =   0.0078125
        k(   70) = (   0.1250001  -0.5051815   0.2998882), wk =   0.0078125
        k(   71) = (   0.1250000  -0.5051813  -0.3998508), wk =   0.0078125
        k(   72) = (   0.1250000  -0.5051814  -0.2998881), wk =   0.0078125
        k(   73) = (   0.1250001  -0.5051814  -0.1999254), wk =   0.0078125
        k(   74) = (   0.1250001  -0.5051814  -0.0999627), wk =   0.0078125
        k(   75) = (   0.1250000  -0.3608439   0.0000000), wk =   0.0078125
        k(   76) = (   0.1250000  -0.3608439   0.0999628), wk =   0.0078125
        k(   77) = (   0.1250000  -0.3608439   0.1999255), wk =   0.0078125
        k(   78) = (   0.1250000  -0.3608439   0.2998882), wk =   0.0078125
        k(   79) = (   0.1250000  -0.3608438  -0.3998508), wk =   0.0078125
        k(   80) = (   0.1250000  -0.3608438  -0.2998881), wk =   0.0078125
        k(   81) = (   0.1250000  -0.3608438  -0.1999254), wk =   0.0078125
        k(   82) = (   0.1250000  -0.3608439  -0.0999627), wk =   0.0078125
        k(   83) = (   0.1250000  -0.2165063   0.0000000), wk =   0.0078125
        k(   84) = (   0.1250000  -0.2165064   0.0999627), wk =   0.0078125
        k(   85) = (   0.1250000  -0.2165064   0.1999255), wk =   0.0078125
        k(   86) = (   0.1250000  -0.2165064   0.2998882), wk =   0.0078125
        k(   87) = (   0.1250000  -0.2165062  -0.3998509), wk =   0.0078125
        k(   88) = (   0.1250000  -0.2165063  -0.2998881), wk =   0.0078125
        k(   89) = (   0.1250000  -0.2165063  -0.1999254), wk =   0.0078125
        k(   90) = (   0.1250000  -0.2165063  -0.0999627), wk =   0.0078125
        k(   91) = (   0.1250000  -0.0721688   0.0000000), wk =   0.0078125
        k(   92) = (   0.1250000  -0.0721688   0.0999627), wk =   0.0078125
        k(   93) = (   0.1250000  -0.0721688   0.1999255), wk =   0.0078125
        k(   94) = (   0.1250000  -0.0721689   0.2998882), wk =   0.0078125
        k(   95) = (   0.1250000  -0.0721687  -0.3998509), wk =   0.0078125
        k(   96) = (   0.1250000  -0.0721687  -0.2998882), wk =   0.0078125
        k(   97) = (   0.1250000  -0.0721687  -0.1999254), wk =   0.0078125
        k(   98) = (   0.1250000  -0.0721688  -0.0999627), wk =   0.0078125
        k(   99) = (   0.2500000   0.1443375  -0.0000000), wk =   0.0078125
        k(  100) = (   0.2500000   0.1443375   0.0999627), wk =   0.0078125
        k(  101) = (   0.2500000   0.1443375   0.1999254), wk =   0.0078125
        k(  102) = (   0.2500000   0.1443374   0.2998881), wk =   0.0078125
        k(  103) = (   0.2500000   0.1443376  -0.3998509), wk =   0.0078125
        k(  104) = (   0.2500000   0.1443376  -0.2998882), wk =   0.0078125
        k(  105) = (   0.2500000   0.1443376  -0.1999255), wk =   0.0078125
        k(  106) = (   0.2500000   0.1443375  -0.0999627), wk =   0.0078125
        k(  107) = (   0.2500000   0.2886751  -0.0000000), wk =   0.0078125
        k(  108) = (   0.2500000   0.2886750   0.0999627), wk =   0.0078125
        k(  109) = (   0.2500000   0.2886750   0.1999254), wk =   0.0078125
        k(  110) = (   0.2500000   0.2886750   0.2998881), wk =   0.0078125
        k(  111) = (   0.2500000   0.2886751  -0.3998509), wk =   0.0078125
        k(  112) = (   0.2500000   0.2886751  -0.2998882), wk =   0.0078125
        k(  113) = (   0.2500000   0.2886751  -0.1999255), wk =   0.0078125
        k(  114) = (   0.2500000   0.2886751  -0.0999628), wk =   0.0078125
        k(  115) = (   0.2500000   0.4330126  -0.0000001), wk =   0.0078125
        k(  116) = (   0.2500000   0.4330126   0.0999627), wk =   0.0078125
        k(  117) = (   0.2500000   0.4330126   0.1999254), wk =   0.0078125
        k(  118) = (   0.2500000   0.4330125   0.2998881), wk =   0.0078125
        k(  119) = (   0.2499999   0.4330127  -0.3998510), wk =   0.0078125
        k(  120) = (   0.2499999   0.4330127  -0.2998882), wk =   0.0078125
        k(  121) = (   0.2499999   0.4330126  -0.1999255), wk =   0.0078125
        k(  122) = (   0.2499999   0.4330126  -0.0999628), wk =   0.0078125
        k(  123) = (   0.2499999   0.5773501  -0.0000001), wk =   0.0078125
        k(  124) = (   0.2499999   0.5773501   0.0999626), wk =   0.0078125
        k(  125) = (   0.2499999   0.5773501   0.1999254), wk =   0.0078125
        k(  126) = (   0.2499999   0.5773501   0.2998881), wk =   0.0078125
        k(  127) = (   0.2499999   0.5773502  -0.3998510), wk =   0.0078125
        k(  128) = (   0.2499999   0.5773502  -0.2998883), wk =   0.0078125
        k(  129) = (   0.2499999   0.5773502  -0.1999255), wk =   0.0078125
        k(  130) = (   0.2499999   0.5773502  -0.0999628), wk =   0.0078125
        k(  131) = (   0.2500000  -0.4330127   0.0000001), wk =   0.0078125
        k(  132) = (   0.2500001  -0.4330127   0.0999628), wk =   0.0078125
        k(  133) = (   0.2500001  -0.4330127   0.1999255), wk =   0.0078125
        k(  134) = (   0.2500001  -0.4330127   0.2998882), wk =   0.0078125
        k(  135) = (   0.2500000  -0.4330126  -0.3998508), wk =   0.0078125
        k(  136) = (   0.2500000  -0.4330126  -0.2998881), wk =   0.0078125
        k(  137) = (   0.2500000  -0.4330126  -0.1999254), wk =   0.0078125
        k(  138) = (   0.2500000  -0.4330126  -0.0999627), wk =   0.0078125
        k(  139) = (   0.2500000  -0.2886751   0.0000000), wk =   0.0078125
        k(  140) = (   0.2500000  -0.2886751   0.0999628), wk =   0.0078125
        k(  141) = (   0.2500000  -0.2886752   0.1999255), wk =   0.0078125
        k(  142) = (   0.2500000  -0.2886752   0.2998882), wk =   0.0078125
        k(  143) = (   0.2500000  -0.2886750  -0.3998509), wk =   0.0078125
        k(  144) = (   0.2500000  -0.2886750  -0.2998881), wk =   0.0078125
        k(  145) = (   0.2500000  -0.2886751  -0.1999254), wk =   0.0078125
        k(  146) = (   0.2500000  -0.2886751  -0.0999627), wk =   0.0078125
        k(  147) = (   0.2500000  -0.1443376   0.0000000), wk =   0.0078125
        k(  148) = (   0.2500000  -0.1443376   0.0999627), wk =   0.0078125
        k(  149) = (   0.2500000  -0.1443376   0.1999255), wk =   0.0078125
        k(  150) = (   0.2500000  -0.1443376   0.2998882), wk =   0.0078125
        k(  151) = (   0.2500000  -0.1443375  -0.3998509), wk =   0.0078125
        k(  152) = (   0.2500000  -0.1443375  -0.2998882), wk =   0.0078125
        k(  153) = (   0.2500000  -0.1443375  -0.1999254), wk =   0.0078125
        k(  154) = (   0.2500000  -0.1443375  -0.0999627), wk =   0.0078125
        k(  155) = (   0.2500000  -0.0000000  -0.0000000), wk =   0.0078125
        k(  156) = (   0.2500000  -0.0000000   0.0999627), wk =   0.0078125
        k(  157) = (   0.2500000  -0.0000001   0.1999254), wk =   0.0078125
        k(  158) = (   0.2500000  -0.0000001   0.2998882), wk =   0.0078125
        k(  159) = (   0.2500000   0.0000001  -0.3998509), wk =   0.0078125
        k(  160) = (   0.2500000   0.0000000  -0.2998882), wk =   0.0078125
        k(  161) = (   0.2500000   0.0000000  -0.1999254), wk =   0.0078125
        k(  162) = (   0.2500000  -0.0000000  -0.0999627), wk =   0.0078125
        k(  163) = (   0.3750000   0.2165063  -0.0000000), wk =   0.0078125
        k(  164) = (   0.3750000   0.2165063   0.0999627), wk =   0.0078125
        k(  165) = (   0.3750000   0.2165062   0.1999254), wk =   0.0078125
        k(  166) = (   0.3750000   0.2165062   0.2998881), wk =   0.0078125
        k(  167) = (   0.3750000   0.2165064  -0.3998509), wk =   0.0078125
        k(  168) = (   0.3750000   0.2165063  -0.2998882), wk =   0.0078125
        k(  169) = (   0.3750000   0.2165063  -0.1999255), wk =   0.0078125
        k(  170) = (   0.3750000   0.2165063  -0.0999628), wk =   0.0078125
        k(  171) = (   0.3750000   0.3608438  -0.0000001), wk =   0.0078125
        k(  172) = (   0.3750000   0.3608438   0.0999627), wk =   0.0078125
        k(  173) = (   0.3750000   0.3608438   0.1999254), wk =   0.0078125
        k(  174) = (   0.3750000   0.3608438   0.2998881), wk =   0.0078125
        k(  175) = (   0.3749999   0.3608439  -0.3998509), wk =   0.0078125
        k(  176) = (   0.3750000   0.3608439  -0.2998882), wk =   0.0078125
        k(  177) = (   0.3750000   0.3608439  -0.1999255), wk =   0.0078125
        k(  178) = (   0.3750000   0.3608438  -0.0999628), wk =   0.0078125
        k(  179) = (   0.3749999   0.5051814  -0.0000001), wk =   0.0078125
        k(  180) = (   0.3749999   0.5051813   0.0999626), wk =   0.0078125
        k(  181) = (   0.3749999   0.5051813   0.1999254), wk =   0.0078125
        k(  182) = (   0.3750000   0.5051813   0.2998881), wk =   0.0078125
        k(  183) = (   0.3749999   0.5051814  -0.3998510), wk =   0.0078125
        k(  184) = (   0.3749999   0.5051814  -0.2998882), wk =   0.0078125
        k(  185) = (   0.3749999   0.5051814  -0.1999255), wk =   0.0078125
        k(  186) = (   0.3749999   0.5051814  -0.0999628), wk =   0.0078125
        k(  187) = (   0.3749999   0.6495189  -0.0000001), wk =   0.0078125
        k(  188) = (   0.3749999   0.6495189   0.0999626), wk =   0.0078125
        k(  189) = (   0.3749999   0.6495189   0.1999253), wk =   0.0078125
        k(  190) = (   0.3749999   0.6495188   0.2998881), wk =   0.0078125
        k(  191) = (   0.3749999   0.6495190  -0.3998510), wk =   0.0078125
        k(  192) = (   0.3749999   0.6495190  -0.2998883), wk =   0.0078125
        k(  193) = (   0.3749999   0.6495189  -0.1999255), wk =   0.0078125
        k(  194) = (   0.3749999   0.6495189  -0.0999628), wk =   0.0078125
        k(  195) = (   0.3750000  -0.3608439   0.0000000), wk =   0.0078125
        k(  196) = (   0.3750000  -0.3608439   0.0999628), wk =   0.0078125
        k(  197) = (   0.3750000  -0.3608439   0.1999255), wk =   0.0078125
        k(  198) = (   0.3750000  -0.3608440   0.2998882), wk =   0.0078125
        k(  199) = (   0.3750000  -0.3608438  -0.3998508), wk =   0.0078125
        k(  200) = (   0.3750000  -0.3608438  -0.2998881), wk =   0.0078125
        k(  201) = (   0.3750000  -0.3608439  -0.1999254), wk =   0.0078125
        k(  202) = (   0.3750000  -0.3608439  -0.0999627), wk =   0.0078125
        k(  203) = (   0.3750000  -0.2165064   0.0000000), wk =   0.0078125
        k(  204) = (   0.3750000  -0.2165064   0.0999627), wk =   0.0078125
        k(  205) = (   0.3750000  -0.2165064   0.1999255), wk =   0.0078125
        k(  206) = (   0.3750000  -0.2165064   0.2998882), wk =   0.0078125
        k(  207) = (   0.3750000  -0.2165063  -0.3998509), wk =   0.0078125
        k(  208) = (   0.3750000  -0.2165063  -0.2998881), wk =   0.0078125
        k(  209) = (   0.3750000  -0.2165063  -0.1999254), wk =   0.0078125
        k(  210) = (   0.3750000  -0.2165063  -0.0999627), wk =   0.0078125
        k(  211) = (   0.3750000  -0.0721688   0.0000000), wk =   0.0078125
        k(  212) = (   0.3750000  -0.0721688   0.0999627), wk =   0.0078125
        k(  213) = (   0.3750000  -0.0721689   0.1999254), wk =   0.0078125
        k(  214) = (   0.3750000  -0.0721689   0.2998882), wk =   0.0078125
        k(  215) = (   0.3750000  -0.0721687  -0.3998509), wk =   0.0078125
        k(  216) = (   0.3750000  -0.0721687  -0.2998882), wk =   0.0078125
        k(  217) = (   0.3750000  -0.0721688  -0.1999254), wk =   0.0078125
        k(  218) = (   0.3750000  -0.0721688  -0.0999627), wk =   0.0078125
        k(  219) = (   0.3750000   0.0721687  -0.0000000), wk =   0.0078125
        k(  220) = (   0.3750000   0.0721687   0.0999627), wk =   0.0078125
        k(  221) = (   0.3750000   0.0721687   0.1999254), wk =   0.0078125
        k(  222) = (   0.3750000   0.0721687   0.2998881), wk =   0.0078125
        k(  223) = (   0.3750000   0.0721688  -0.3998509), wk =   0.0078125
        k(  224) = (   0.3750000   0.0721688  -0.2998882), wk =   0.0078125
        k(  225) = (   0.3750000   0.0721688  -0.1999255), wk =   0.0078125
        k(  226) = (   0.3750000   0.0721688  -0.0999627), wk =   0.0078125
        k(  227) = (  -0.5000000  -0.2886750   0.0000001), wk =   0.0039062
        k(  228) = (  -0.5000000  -0.2886751   0.0999628), wk =   0.0078125
        k(  229) = (  -0.5000000  -0.2886751   0.1999255), wk =   0.0078125
        k(  230) = (  -0.5000000  -0.2886751   0.2998882), wk =   0.0078125
        k(  231) = (  -0.5000000  -0.2886749  -0.3998508), wk =   0.0039062
        k(  232) = (  -0.5000000  -0.1443375   0.0000000), wk =   0.0078125
        k(  233) = (  -0.5000000  -0.1443375   0.0999628), wk =   0.0078125
        k(  234) = (  -0.5000000  -0.1443375   0.1999255), wk =   0.0078125
        k(  235) = (  -0.5000000  -0.1443376   0.2998882), wk =   0.0078125
        k(  236) = (  -0.5000000  -0.1443374  -0.3998509), wk =   0.0078125
        k(  237) = (  -0.5000000  -0.1443374  -0.2998881), wk =   0.0078125
        k(  238) = (  -0.5000000  -0.1443374  -0.1999254), wk =   0.0078125
        k(  239) = (  -0.5000000  -0.1443375  -0.0999627), wk =   0.0078125
        k(  240) = (  -0.5000000   0.0000001   0.0000000), wk =   0.0078125
        k(  241) = (  -0.5000000   0.0000000   0.0999627), wk =   0.0078125
        k(  242) = (  -0.5000000   0.0000000   0.1999255), wk =   0.0078125
        k(  243) = (  -0.5000000  -0.0000000   0.2998882), wk =   0.0078125
        k(  244) = (  -0.5000000   0.0000001  -0.3998509), wk =   0.0078125
        k(  245) = (  -0.5000000   0.0000001  -0.2998882), wk =   0.0078125
        k(  246) = (  -0.5000000   0.0000001  -0.1999254), wk =   0.0078125
        k(  247) = (  -0.5000000   0.0000001  -0.0999627), wk =   0.0078125
        k(  248) = (  -0.5000000   0.1443376  -0.0000000), wk =   0.0078125
        k(  249) = (  -0.5000000   0.1443376   0.0999627), wk =   0.0078125
        k(  250) = (  -0.5000000   0.1443376   0.1999254), wk =   0.0078125
        k(  251) = (  -0.5000000   0.1443375   0.2998882), wk =   0.0078125
        k(  252) = (  -0.5000000   0.1443377  -0.3998509), wk =   0.0078125
        k(  253) = (  -0.5000000   0.1443377  -0.2998882), wk =   0.0078125
        k(  254) = (  -0.5000000   0.1443376  -0.1999255), wk =   0.0078125
        k(  255) = (  -0.5000000   0.1443376  -0.0999627), wk =   0.0078125
        k(  256) = (  -0.4999999  -0.8660252   0.0000001), wk =   0.0039062
        k(  257) = (  -0.4999999  -0.8660252   0.0999629), wk =   0.0078125
        k(  258) = (  -0.4999999  -0.8660252   0.1999256), wk =   0.0078125
        k(  259) = (  -0.4999999  -0.8660253   0.2998883), wk =   0.0078125
        k(  260) = (  -0.4999999  -0.8660251  -0.3998508), wk =   0.0039062

                       cryst. coord.
        k(    1) = (   0.0000000   0.0000000   0.0000000), wk =   0.0039062
        k(    2) = (   0.0000000  -0.0000000   0.1250000), wk =   0.0078125
        k(    3) = (   0.0000000  -0.0000000   0.2500000), wk =   0.0078125
        k(    4) = (   0.0000000   0.0000000   0.3750000), wk =   0.0078125
        k(    5) = (  -0.0000000   0.0000000  -0.5000000), wk =   0.0039062
        k(    6) = (  -0.0000000   0.1250000  -0.0000000), wk =   0.0078125
        k(    7) = (  -0.0000000   0.1250000   0.1250000), wk =   0.0078125
        k(    8) = (  -0.0000000   0.1250000   0.2500000), wk =   0.0078125
        k(    9) = (   0.0000000   0.1250000   0.3750000), wk =   0.0078125
        k(   10) = (  -0.0000000   0.1250000  -0.5000000), wk =   0.0078125
        k(   11) = (  -0.0000000   0.1250000  -0.3750000), wk =   0.0078125
        k(   12) = (  -0.0000000   0.1250000  -0.2500000), wk =   0.0078125
        k(   13) = (  -0.0000000   0.1250000  -0.1250000), wk =   0.0078125
        k(   14) = (  -0.0000000   0.2500000  -0.0000000), wk =   0.0078125
        k(   15) = (  -0.0000000   0.2500000   0.1250000), wk =   0.0078125
        k(   16) = (  -0.0000000   0.2500000   0.2500000), wk =   0.0078125
        k(   17) = (   0.0000000   0.2500000   0.3750000), wk =   0.0078125
        k(   18) = (  -0.0000000   0.2500000  -0.5000000), wk =   0.0078125
        k(   19) = (  -0.0000000   0.2500000  -0.3750000), wk =   0.0078125
        k(   20) = (  -0.0000000   0.2500000  -0.2500000), wk =   0.0078125
        k(   21) = (  -0.0000000   0.2500000  -0.1250000), wk =   0.0078125
        k(   22) = (   0.0000000   0.3750000  -0.0000000), wk =   0.0078125
        k(   23) = (   0.0000000   0.3750000   0.1250000), wk =   0.0078125
        k(   24) = (   0.0000000   0.3750000   0.2500000), wk =   0.0078125
        k(   25) = (  -0.0000000   0.3750000   0.3750000), wk =   0.0078125
        k(   26) = (  -0.0000000   0.3750000  -0.5000000), wk =   0.0078125
        k(   27) = (   0.0000000   0.3750000  -0.3750000), wk =   0.0078125
        k(   28) = (  -0.0000000   0.3750000  -0.2500000), wk =   0.0078125
        k(   29) = (  -0.0000000   0.3750000  -0.1250000), wk =   0.0078125
        k(   30) = (   0.0000000  -0.5000000   0.0000000), wk =   0.0039062
        k(   31) = (  -0.0000000  -0.5000000   0.1250000), wk =   0.0078125
        k(   32) = (   0.0000000  -0.5000000   0.2500000), wk =   0.0078125
        k(   33) = (   0.0000000  -0.5000000   0.3750000), wk =   0.0078125
        k(   34) = (   0.0000000  -0.5000000  -0.5000000), wk =   0.0039062
        k(   35) = (   0.1250000  -0.0000000  -0.0000000), wk =   0.0078125
        k(   36) = (   0.1250000   0.0000000   0.1250000), wk =   0.0078125
        k(   37) = (   0.1250000   0.0000000   0.2500000), wk =   0.0078125
        k(   38) = (   0.1250000   0.0000000   0.3750000), wk =   0.0078125
        k(   39) = (   0.1250000   0.0000000  -0.5000000), wk =   0.0078125
        k(   40) = (   0.1250000  -0.0000000  -0.3750000), wk =   0.0078125
        k(   41) = (   0.1250000   0.0000000  -0.2500000), wk =   0.0078125
        k(   42) = (   0.1250000  -0.0000000  -0.1250000), wk =   0.0078125
        k(   43) = (   0.1250000   0.1250000  -0.0000000), wk =   0.0078125
        k(   44) = (   0.1250000   0.1250000   0.1250000), wk =   0.0078125
        k(   45) = (   0.1250000   0.1250000   0.2500000), wk =   0.0078125
        k(   46) = (   0.1250000   0.1250000   0.3750000), wk =   0.0078125
        k(   47) = (   0.1250000   0.1250000  -0.5000000), wk =   0.0078125
        k(   48) = (   0.1250000   0.1250000  -0.3750000), wk =   0.0078125
        k(   49) = (   0.1250000   0.1250000  -0.2500000), wk =   0.0078125
        k(   50) = (   0.1250000   0.1250000  -0.1250000), wk =   0.0078125
        k(   51) = (   0.1250000   0.2500000  -0.0000000), wk =   0.0078125
        k(   52) = (   0.1250000   0.2500000   0.1250000), wk =   0.0078125
        k(   53) = (   0.1250000   0.2500000   0.2500000), wk =   0.0078125
        k(   54) = (   0.1250000   0.2500000   0.3750000), wk =   0.0078125
        k(   55) = (   0.1250000   0.2500000  -0.5000000), wk =   0.0078125
        k(   56) = (   0.1250000   0.2500000  -0.3750000), wk =   0.0078125
        k(   57) = (   0.1250000   0.2500000  -0.2500000), wk =   0.0078125
        k(   58) = (   0.1250000   0.2500000  -0.1250000), wk =   0.0078125
        k(   59) = (   0.1250000   0.3750000  -0.0000000), wk =   0.0078125
        k(   60) = (   0.1250000   0.3750000   0.1250000), wk =   0.0078125
        k(   61) = (   0.1250000   0.3750000   0.2500000), wk =   0.0078125
        k(   62) = (   0.1250000   0.3750000   0.3750000), wk =   0.0078125
        k(   63) = (   0.1250000   0.3750000  -0.5000000), wk =   0.0078125
        k(   64) = (   0.1250000   0.3750000  -0.3750000), wk =   0.0078125
        k(   65) = (   0.1250000   0.3750000  -0.2500000), wk =   0.0078125
        k(   66) = (   0.1250000   0.3750000  -0.1250000), wk =   0.0078125
        k(   67) = (   0.1250000  -0.5000000   0.0000000), wk =   0.0078125
        k(   68) = (   0.1250000  -0.5000000   0.1250000), wk =   0.0078125
        k(   69) = (   0.1250000  -0.5000000   0.2500000), wk =   0.0078125
        k(   70) = (   0.1250000  -0.5000000   0.3750000), wk =   0.0078125
        k(   71) = (   0.1250000  -0.5000000  -0.5000000), wk =   0.0078125
        k(   72) = (   0.1250000  -0.5000000  -0.3750000), wk =   0.0078125
        k(   73) = (   0.1250000  -0.5000000  -0.2500000), wk =   0.0078125
        k(   74) = (   0.1250000  -0.5000000  -0.1250000), wk =   0.0078125
        k(   75) = (   0.1250000  -0.3750000   0.0000000), wk =   0.0078125
        k(   76) = (   0.1250000  -0.3750000   0.1250000), wk =   0.0078125
        k(   77) = (   0.1250000  -0.3750000   0.2500000), wk =   0.0078125
        k(   78) = (   0.1250000  -0.3750000   0.3750000), wk =   0.0078125
        k(   79) = (   0.1250000  -0.3750000  -0.5000000), wk =   0.0078125
        k(   80) = (   0.1250000  -0.3750000  -0.3750000), wk =   0.0078125
        k(   81) = (   0.1250000  -0.3750000  -0.2500000), wk =   0.0078125
        k(   82) = (   0.1250000  -0.3750000  -0.1250000), wk =   0.0078125
        k(   83) = (   0.1250000  -0.2500000   0.0000000), wk =   0.0078125
        k(   84) = (   0.1250000  -0.2500000   0.1250000), wk =   0.0078125
        k(   85) = (   0.1250000  -0.2500000   0.2500000), wk =   0.0078125
        k(   86) = (   0.1250000  -0.2500000   0.3750000), wk =   0.0078125
        k(   87) = (   0.1250000  -0.2500000  -0.5000000), wk =   0.0078125
        k(   88) = (   0.1250000  -0.2500000  -0.3750000), wk =   0.0078125
        k(   89) = (   0.1250000  -0.2500000  -0.2500000), wk =   0.0078125
        k(   90) = (   0.1250000  -0.2500000  -0.1250000), wk =   0.0078125
        k(   91) = (   0.1250000  -0.1250000  -0.0000000), wk =   0.0078125
        k(   92) = (   0.1250000  -0.1250000   0.1250000), wk =   0.0078125
        k(   93) = (   0.1250000  -0.1250000   0.2500000), wk =   0.0078125
        k(   94) = (   0.1250000  -0.1250000   0.3750000), wk =   0.0078125
        k(   95) = (   0.1250000  -0.1250000  -0.5000000), wk =   0.0078125
        k(   96) = (   0.1250000  -0.1250000  -0.3750000), wk =   0.0078125
        k(   97) = (   0.1250000  -0.1250000  -0.2500000), wk =   0.0078125
        k(   98) = (   0.1250000  -0.1250000  -0.1250000), wk =   0.0078125
        k(   99) = (   0.2500000  -0.0000000  -0.0000000), wk =   0.0078125
        k(  100) = (   0.2500000  -0.0000000   0.1250000), wk =   0.0078125
        k(  101) = (   0.2500000   0.0000000   0.2500000), wk =   0.0078125
        k(  102) = (   0.2500000   0.0000000   0.3750000), wk =   0.0078125
        k(  103) = (   0.2500000   0.0000000  -0.5000000), wk =   0.0078125
        k(  104) = (   0.2500000  -0.0000000  -0.3750000), wk =   0.0078125
        k(  105) = (   0.2500000  -0.0000000  -0.2500000), wk =   0.0078125
        k(  106) = (   0.2500000   0.0000000  -0.1250000), wk =   0.0078125
        k(  107) = (   0.2500000   0.1250000  -0.0000000), wk =   0.0078125
        k(  108) = (   0.2500000   0.1250000   0.1250000), wk =   0.0078125
        k(  109) = (   0.2500000   0.1250000   0.2500000), wk =   0.0078125
        k(  110) = (   0.2500000   0.1250000   0.3750000), wk =   0.0078125
        k(  111) = (   0.2500000   0.1250000  -0.5000000), wk =   0.0078125
        k(  112) = (   0.2500000   0.1250000  -0.3750000), wk =   0.0078125
        k(  113) = (   0.2500000   0.1250000  -0.2500000), wk =   0.0078125
        k(  114) = (   0.2500000   0.1250000  -0.1250000), wk =   0.0078125
        k(  115) = (   0.2500000   0.2500000  -0.0000000), wk =   0.0078125
        k(  116) = (   0.2500000   0.2500000   0.1250000), wk =   0.0078125
        k(  117) = (   0.2500000   0.2500000   0.2500000), wk =   0.0078125
        k(  118) = (   0.2500000   0.2500000   0.3750000), wk =   0.0078125
        k(  119) = (   0.2500000   0.2500000  -0.5000000), wk =   0.0078125
        k(  120) = (   0.2500000   0.2500000  -0.3750000), wk =   0.0078125
        k(  121) = (   0.2500000   0.2500000  -0.2500000), wk =   0.0078125
        k(  122) = (   0.2500000   0.2500000  -0.1250000), wk =   0.0078125
        k(  123) = (   0.2500000   0.3750000  -0.0000000), wk =   0.0078125
        k(  124) = (   0.2500000   0.3750000   0.1250000), wk =   0.0078125
        k(  125) = (   0.2500000   0.3750000   0.2500000), wk =   0.0078125
        k(  126) = (   0.2500000   0.3750000   0.3750000), wk =   0.0078125
        k(  127) = (   0.2500000   0.3750000  -0.5000000), wk =   0.0078125
        k(  128) = (   0.2500000   0.3750000  -0.3750000), wk =   0.0078125
        k(  129) = (   0.2500000   0.3750000  -0.2500000), wk =   0.0078125
        k(  130) = (   0.2500000   0.3750000  -0.1250000), wk =   0.0078125
        k(  131) = (   0.2500000  -0.5000000   0.0000000), wk =   0.0078125
        k(  132) = (   0.2500000  -0.5000000   0.1250000), wk =   0.0078125
        k(  133) = (   0.2500000  -0.5000000   0.2500000), wk =   0.0078125
        k(  134) = (   0.2500000  -0.5000000   0.3750000), wk =   0.0078125
        k(  135) = (   0.2500000  -0.5000000  -0.5000000), wk =   0.0078125
        k(  136) = (   0.2500000  -0.5000000  -0.3750000), wk =   0.0078125
        k(  137) = (   0.2500000  -0.5000000  -0.2500000), wk =   0.0078125
        k(  138) = (   0.2500000  -0.5000000  -0.1250000), wk =   0.0078125
        k(  139) = (   0.2500000  -0.3750000   0.0000000), wk =   0.0078125
        k(  140) = (   0.2500000  -0.3750000   0.1250000), wk =   0.0078125
        k(  141) = (   0.2500000  -0.3750000   0.2500000), wk =   0.0078125
        k(  142) = (   0.2500000  -0.3750000   0.3750000), wk =   0.0078125
        k(  143) = (   0.2500000  -0.3750000  -0.5000000), wk =   0.0078125
        k(  144) = (   0.2500000  -0.3750000  -0.3750000), wk =   0.0078125
        k(  145) = (   0.2500000  -0.3750000  -0.2500000), wk =   0.0078125
        k(  146) = (   0.2500000  -0.3750000  -0.1250000), wk =   0.0078125
        k(  147) = (   0.2500000  -0.2500000  -0.0000000), wk =   0.0078125
        k(  148) = (   0.2500000  -0.2500000   0.1250000), wk =   0.0078125
        k(  149) = (   0.2500000  -0.2500000   0.2500000), wk =   0.0078125
        k(  150) = (   0.2500000  -0.2500000   0.3750000), wk =   0.0078125
        k(  151) = (   0.2500000  -0.2500000  -0.5000000), wk =   0.0078125
        k(  152) = (   0.2500000  -0.2500000  -0.3750000), wk =   0.0078125
        k(  153) = (   0.2500000  -0.2500000  -0.2500000), wk =   0.0078125
        k(  154) = (   0.2500000  -0.2500000  -0.1250000), wk =   0.0078125
        k(  155) = (   0.2500000  -0.1250000  -0.0000000), wk =   0.0078125
        k(  156) = (   0.2500000  -0.1250000   0.1250000), wk =   0.0078125
        k(  157) = (   0.2500000  -0.1250000   0.2500000), wk =   0.0078125
        k(  158) = (   0.2500000  -0.1250000   0.3750000), wk =   0.0078125
        k(  159) = (   0.2500000  -0.1250000  -0.5000000), wk =   0.0078125
        k(  160) = (   0.2500000  -0.1250000  -0.3750000), wk =   0.0078125
        k(  161) = (   0.2500000  -0.1250000  -0.2500000), wk =   0.0078125
        k(  162) = (   0.2500000  -0.1250000  -0.1250000), wk =   0.0078125
        k(  163) = (   0.3750000  -0.0000000   0.0000000), wk =   0.0078125
        k(  164) = (   0.3750000  -0.0000000   0.1250000), wk =   0.0078125
        k(  165) = (   0.3750000  -0.0000000   0.2500000), wk =   0.0078125
        k(  166) = (   0.3750000   0.0000000   0.3750000), wk =   0.0078125
        k(  167) = (   0.3750000  -0.0000000  -0.5000000), wk =   0.0078125
        k(  168) = (   0.3750000  -0.0000000  -0.3750000), wk =   0.0078125
        k(  169) = (   0.3750000  -0.0000000  -0.2500000), wk =   0.0078125
        k(  170) = (   0.3750000  -0.0000000  -0.1250000), wk =   0.0078125
        k(  171) = (   0.3750000   0.1250000   0.0000000), wk =   0.0078125
        k(  172) = (   0.3750000   0.1250000   0.1250000), wk =   0.0078125
        k(  173) = (   0.3750000   0.1250000   0.2500000), wk =   0.0078125
        k(  174) = (   0.3750000   0.1250000   0.3750000), wk =   0.0078125
        k(  175) = (   0.3750000   0.1250000  -0.5000000), wk =   0.0078125
        k(  176) = (   0.3750000   0.1250000  -0.3750000), wk =   0.0078125
        k(  177) = (   0.3750000   0.1250000  -0.2500000), wk =   0.0078125
        k(  178) = (   0.3750000   0.1250000  -0.1250000), wk =   0.0078125
        k(  179) = (   0.3750000   0.2500000  -0.0000000), wk =   0.0078125
        k(  180) = (   0.3750000   0.2500000   0.1250000), wk =   0.0078125
        k(  181) = (   0.3750000   0.2500000   0.2500000), wk =   0.0078125
        k(  182) = (   0.3750000   0.2500000   0.3750000), wk =   0.0078125
        k(  183) = (   0.3750000   0.2500000  -0.5000000), wk =   0.0078125
        k(  184) = (   0.3750000   0.2500000  -0.3750000), wk =   0.0078125
        k(  185) = (   0.3750000   0.2500000  -0.2500000), wk =   0.0078125
        k(  186) = (   0.3750000   0.2500000  -0.1250000), wk =   0.0078125
        k(  187) = (   0.3750000   0.3750000  -0.0000000), wk =   0.0078125
        k(  188) = (   0.3750000   0.3750000   0.1250000), wk =   0.0078125
        k(  189) = (   0.3750000   0.3750000   0.2500000), wk =   0.0078125
        k(  190) = (   0.3750000   0.3750000   0.3750000), wk =   0.0078125
        k(  191) = (   0.3750000   0.3750000  -0.5000000), wk =   0.0078125
        k(  192) = (   0.3750000   0.3750000  -0.3750000), wk =   0.0078125
        k(  193) = (   0.3750000   0.3750000  -0.2500000), wk =   0.0078125
        k(  194) = (   0.3750000   0.3750000  -0.1250000), wk =   0.0078125
        k(  195) = (   0.3750000  -0.5000000  -0.0000000), wk =   0.0078125
        k(  196) = (   0.3750000  -0.5000000   0.1250000), wk =   0.0078125
        k(  197) = (   0.3750000  -0.5000000   0.2500000), wk =   0.0078125
        k(  198) = (   0.3750000  -0.5000000   0.3750000), wk =   0.0078125
        k(  199) = (   0.3750000  -0.5000000  -0.5000000), wk =   0.0078125
        k(  200) = (   0.3750000  -0.5000000  -0.3750000), wk =   0.0078125
        k(  201) = (   0.3750000  -0.5000000  -0.2500000), wk =   0.0078125
        k(  202) = (   0.3750000  -0.5000000  -0.1250000), wk =   0.0078125
        k(  203) = (   0.3750000  -0.3750000  -0.0000000), wk =   0.0078125
        k(  204) = (   0.3750000  -0.3750000   0.1250000), wk =   0.0078125
        k(  205) = (   0.3750000  -0.3750000   0.2500000), wk =   0.0078125
        k(  206) = (   0.3750000  -0.3750000   0.3750000), wk =   0.0078125
        k(  207) = (   0.3750000  -0.3750000  -0.5000000), wk =   0.0078125
        k(  208) = (   0.3750000  -0.3750000  -0.3750000), wk =   0.0078125
        k(  209) = (   0.3750000  -0.3750000  -0.2500000), wk =   0.0078125
        k(  210) = (   0.3750000  -0.3750000  -0.1250000), wk =   0.0078125
        k(  211) = (   0.3750000  -0.2500000  -0.0000000), wk =   0.0078125
        k(  212) = (   0.3750000  -0.2500000   0.1250000), wk =   0.0078125
        k(  213) = (   0.3750000  -0.2500000   0.2500000), wk =   0.0078125
        k(  214) = (   0.3750000  -0.2500000   0.3750000), wk =   0.0078125
        k(  215) = (   0.3750000  -0.2500000  -0.5000000), wk =   0.0078125
        k(  216) = (   0.3750000  -0.2500000  -0.3750000), wk =   0.0078125
        k(  217) = (   0.3750000  -0.2500000  -0.2500000), wk =   0.0078125
        k(  218) = (   0.3750000  -0.2500000  -0.1250000), wk =   0.0078125
        k(  219) = (   0.3750000  -0.1250000  -0.0000000), wk =   0.0078125
        k(  220) = (   0.3750000  -0.1250000   0.1250000), wk =   0.0078125
        k(  221) = (   0.3750000  -0.1250000   0.2500000), wk =   0.0078125
        k(  222) = (   0.3750000  -0.1250000   0.3750000), wk =   0.0078125
        k(  223) = (   0.3750000  -0.1250000  -0.5000000), wk =   0.0078125
        k(  224) = (   0.3750000  -0.1250000  -0.3750000), wk =   0.0078125
        k(  225) = (   0.3750000  -0.1250000  -0.2500000), wk =   0.0078125
        k(  226) = (   0.3750000  -0.1250000  -0.1250000), wk =   0.0078125
        k(  227) = (  -0.5000000   0.0000000   0.0000000), wk =   0.0039062
        k(  228) = (  -0.5000000  -0.0000000   0.1250000), wk =   0.0078125
        k(  229) = (  -0.5000000  -0.0000000   0.2500000), wk =   0.0078125
        k(  230) = (  -0.5000000   0.0000000   0.3750000), wk =   0.0078125
        k(  231) = (  -0.5000000  -0.0000000  -0.5000000), wk =   0.0039062
        k(  232) = (  -0.5000000   0.1250000   0.0000000), wk =   0.0078125
        k(  233) = (  -0.5000000   0.1250000   0.1250000), wk =   0.0078125
        k(  234) = (  -0.5000000   0.1250000   0.2500000), wk =   0.0078125
        k(  235) = (  -0.5000000   0.1250000   0.3750000), wk =   0.0078125
        k(  236) = (  -0.5000000   0.1250000  -0.5000000), wk =   0.0078125
        k(  237) = (  -0.5000000   0.1250000  -0.3750000), wk =   0.0078125
        k(  238) = (  -0.5000000   0.1250000  -0.2500000), wk =   0.0078125
        k(  239) = (  -0.5000000   0.1250000  -0.1250000), wk =   0.0078125
        k(  240) = (  -0.5000000   0.2500000   0.0000000), wk =   0.0078125
        k(  241) = (  -0.5000000   0.2500000   0.1250000), wk =   0.0078125
        k(  242) = (  -0.5000000   0.2500000   0.2500000), wk =   0.0078125
        k(  243) = (  -0.5000000   0.2500000   0.3750000), wk =   0.0078125
        k(  244) = (  -0.5000000   0.2500000  -0.5000000), wk =   0.0078125
        k(  245) = (  -0.5000000   0.2500000  -0.3750000), wk =   0.0078125
        k(  246) = (  -0.5000000   0.2500000  -0.2500000), wk =   0.0078125
        k(  247) = (  -0.5000000   0.2500000  -0.1250000), wk =   0.0078125
        k(  248) = (  -0.5000000   0.3750000   0.0000000), wk =   0.0078125
        k(  249) = (  -0.5000000   0.3750000   0.1250000), wk =   0.0078125
        k(  250) = (  -0.5000000   0.3750000   0.2500000), wk =   0.0078125
        k(  251) = (  -0.5000000   0.3750000   0.3750000), wk =   0.0078125
        k(  252) = (  -0.5000000   0.3750000  -0.5000000), wk =   0.0078125
        k(  253) = (  -0.5000000   0.3750000  -0.3750000), wk =   0.0078125
        k(  254) = (  -0.5000000   0.3750000  -0.2500000), wk =   0.0078125
        k(  255) = (  -0.5000000   0.3750000  -0.1250000), wk =   0.0078125
        k(  256) = (  -0.5000000  -0.5000000   0.0000000), wk =   0.0039062
        k(  257) = (  -0.5000000  -0.5000000   0.1250000), wk =   0.0078125
        k(  258) = (  -0.5000000  -0.5000000   0.2500000), wk =   0.0078125
        k(  259) = (  -0.5000000  -0.5000000   0.3750000), wk =   0.0078125
        k(  260) = (  -0.5000000  -0.5000000  -0.5000000), wk =   0.0039062

     Dense  grid:    75291 G-vectors     FFT dimensions: (  54,  54,  64)

     Smooth grid:    29333 G-vectors     FFT dimensions: (  40,  40,  48)

     Dynamical RAM for                 wfc:       0.07 MB

     Dynamical RAM for     wfc (w. buffer):       4.82 MB

     Dynamical RAM for           str. fact:       0.22 MB

     Dynamical RAM for           local pot:       0.00 MB

     Dynamical RAM for          nlocal pot:       0.22 MB

     Dynamical RAM for                qrad:       8.18 MB

     Dynamical RAM for          rho,v,vnew:       0.48 MB

     Dynamical RAM for               rhoin:       0.16 MB

     Dynamical RAM for            rho*nmix:       1.15 MB

     Dynamical RAM for           G-vectors:       0.28 MB

     Dynamical RAM for          h,s,v(r/c):       0.08 MB

     Dynamical RAM for          <psi|beta>:       0.02 MB

     Dynamical RAM for                 psi:       0.29 MB

     Dynamical RAM for                hpsi:       0.29 MB

     Dynamical RAM for                spsi:       0.29 MB

     Dynamical RAM for      wfcinit/wfcrot:       0.20 MB

     Dynamical RAM for           addusdens:       3.77 MB

     Dynamical RAM for          addusforce:       3.91 MB

     Dynamical RAM for         addusstress:       3.97 MB

     Estimated static dynamical RAM per process >      16.25 MB

     Estimated max dynamical RAM per process >      20.22 MB

     Estimated total dynamical RAM >       1.26 GB

     Check: negative core charge=   -0.000003

     Initial potential from superposition of free atoms

     starting charge   41.69964, renormalised to   42.00000
     Starting wfcs are   26 randomized atomic wfcs

     total cpu time spent up to now is        1.6 secs

     Self-consistent Calculation

     iteration #  1     ecut=    80.00 Ry     beta= 0.50
     Davidson diagonalization with overlap
     ethr =  1.00E-02,  avg # of iterations =  2.0

     total cpu time spent up to now is        2.3 secs

     total energy              =    -650.65294469 Ry
     Harris-Foulkes estimate   =    -651.44178122 Ry
     estimated scf accuracy    <       1.18306643 Ry

     iteration #  2     ecut=    80.00 Ry     beta= 0.50
     Davidson diagonalization with overlap
     ethr =  2.82E-03,  avg # of iterations =  3.0

     total cpu time spent up to now is        3.3 secs

     total energy              =    -651.02576893 Ry
     Harris-Foulkes estimate   =    -651.28827496 Ry
     estimated scf accuracy    <       0.60085515 Ry

     iteration #  3     ecut=    80.00 Ry     beta= 0.50
     Davidson diagonalization with overlap
     ethr =  1.43E-03,  avg # of iterations =  2.0

     total cpu time spent up to now is        4.1 secs

     total energy              =    -651.12747940 Ry
     Harris-Foulkes estimate   =    -651.13072784 Ry
     estimated scf accuracy    <       0.00961841 Ry

     iteration #  4     ecut=    80.00 Ry     beta= 0.50
     Davidson diagonalization with overlap
     ethr =  2.29E-05,  avg # of iterations =  2.9

     total cpu time spent up to now is        5.1 secs

     total energy              =    -651.12810454 Ry
     Harris-Foulkes estimate   =    -651.12919136 Ry
     estimated scf accuracy    <       0.00270360 Ry

     iteration #  5     ecut=    80.00 Ry     beta= 0.50
     Davidson diagonalization with overlap
     ethr =  6.44E-06,  avg # of iterations =  2.8

     total cpu time spent up to now is        6.0 secs

     total energy              =    -651.12864706 Ry
     Harris-Foulkes estimate   =    -651.12869392 Ry
     estimated scf accuracy    <       0.00019298 Ry

     iteration #  6     ecut=    80.00 Ry     beta= 0.50
     Davidson diagonalization with overlap
     ethr =  4.59E-07,  avg # of iterations =  2.7

     total cpu time spent up to now is        7.0 secs

     total energy              =    -651.12867665 Ry
     Harris-Foulkes estimate   =    -651.12867351 Ry
     estimated scf accuracy    <       0.00000931 Ry

     iteration #  7     ecut=    80.00 Ry     beta= 0.50
     Davidson diagonalization with overlap
     ethr =  2.22E-08,  avg # of iterations =  2.1

     total cpu time spent up to now is        7.8 secs

     End of self-consistent calculation

          k = 0.0000 0.0000 0.0000 (  3647 PWs)   bands (ev):

  -115.2497 -69.6138 -69.6138 -69.6006 -64.7072 -31.6960 -31.6780 -31.6780
    -9.9290  -8.5083   2.1256   2.1256   3.1292   3.3675   3.3675   3.7064
     5.8321   5.8321   7.0376   7.4256   7.4256

     occupation numbers 
     1.0000   1.0000   1.0000   1.0000   1.0000   1.0000   1.0000   1.0000
     1.0000   1.0000   1.0000   1.0000   1.0000   1.0000   1.0000   1.0000
     1.0000   1.0000   1.0000   1.0000   1.0000

          k = 0.0000-0.0000 0.1000 (  3653 PWs)   bands (ev):

  -115.2497 -69.6138 -69.6138 -69.6006 -64.7072 -31.6962 -31.6780 -31.6780
    -9.8817  -8.5518   2.1265   2.1266   2.8810   3.3415   3.3415   3.9457
     5.8902   5.8902   6.7483   7.4054   7.4054

     occupation numbers 
     1.0000   1.0000   1.0000   1.0000   1.0000   1.0000   1.0000   1.0000
     1.0000   1.0000   1.0000   1.0000   1.0000   1.0000   1.0000   1.0000
     1.0000   1.0000   1.0000   1.0000   1.0000

          k = 0.0000-0.0000 0.1999 (  3701 PWs)   bands (ev):

  -115.2497 -69.6139 -69.6139 -69.6007 -64.7072 -31.6968 -31.6780 -31.6780
    -9.7506  -8.6741   2.1289   2.1289   2.5404   3.2819   3.2819   4.2620
     6.0340   6.0340   6.2544   7.3499   7.3499

     occupation numbers 
     1.0000   1.0000   1.0000   1.0000   1.0000   1.0000   1.0000   1.0000
     1.0000   1.0000   1.0000   1.0000   1.0000   1.0000   1.0000   1.0000
     1.0000   1.0000   1.0000   1.0000   1.0000

          k = 0.0000-0.0000 0.2999 (  3690 PWs)   bands (ev):

  -115.2497 -69.6139 -69.6139 -69.6006 -64.7072 -31.6974 -31.6780 -31.6780
    -9.5756  -8.8409   2.1313   2.1313   2.3096   3.2261   3.2261   4.4598
     5.8955   6.1875   6.1875   7.2810   7.2810

     occupation numbers 
     1.0000   1.0000   1.0000   1.0000   1.0000   1.0000   1.0000   1.0000
     1.0000   1.0000   1.0000   1.0000   1.0000   1.0000   1.0000   1.0000
     1.0000   1.0000   1.0000   1.0000   1.0000

          k =-0.0000 0.0000-0.3999 (  3684 PWs)   bands (ev):

  -115.2497 -69.6139 -69.6139 -69.6007 -64.7072 -31.6976 -31.6780 -31.6780
    -9.4715  -8.9418   2.1323   2.1323   2.2302   3.2040   3.2040   4.5206
     5.7723   6.2560   6.2560   7.2466   7.2466

     occupation numbers 
     1.0000   1.0000   1.0000   1.0000   1.0000   1.0000   1.0000   1.0000
     1.0000   1.0000   1.0000   1.0000   1.0000   1.0000   1.0000   1.0000
     1.0000   1.0000   1.0000   1.0000   1.0000

          k =-0.0000 0.1443-0.0000 (  3652 PWs)   bands (ev):

  -115.2497 -69.6140 -69.6139 -69.6006 -64.7071 -31.6958 -31.6807 -31.6786
    -9.8475  -8.5082   2.1018   2.2056   2.9869   3.3617   3.6169   3.7127
     5.5314   5.7470   6.8050   6.9565   7.2843

     occupation numbers 
     1.0000   1.0000   1.0000   1.0000   1.0000   1.0000   1.0000   1.0000
     1.0000   1.0000   1.0000   1.0000   1.0000   1.0000   1.0000   1.0000
     1.0000   1.0000   1.0000   1.0000   1.0000

          k =-0.0000 0.1443 0.1000 (  3659 PWs)   bands (ev):

  -115.2497 -69.6140 -69.6139 -69.6006 -64.7071 -31.6960 -31.6807 -31.6786
    -9.8024  -8.5470   2.1005   2.2066   2.8387   3.3352   3.3452   4.0708
     5.5990   5.8109   6.4022   7.2438   7.2552

     occupation numbers 
     1.0000   1.0000   1.0000   1.0000   1.0000   1.0000   1.0000   1.0000
     1.0000   1.0000   1.0000   1.0000   1.0000   1.0000   1.0000   1.0000
     1.0000   1.0000   1.0000   1.0000   1.0000

          k =-0.0000 0.1443 0.1999 (  3667 PWs)   bands (ev):

  -115.2497 -69.6140 -69.6139 -69.6006 -64.7071 -31.6966 -31.6807 -31.6786
    -9.6783  -8.6565   2.0926   2.2097   2.5484   3.1556   3.2741   4.4051
     5.7074   5.9693   6.0439   7.1783   7.3906

     occupation numbers 
     1.0000   1.0000   1.0000   1.0000   1.0000   1.0000   1.0000   1.0000
     1.0000   1.0000   1.0000   1.0000   1.0000   1.0000   1.0000   1.0000
     1.0000   1.0000   1.0000   1.0000   1.0000

          k =-0.0000 0.1443 0.2999 (  3667 PWs)   bands (ev):

  -115.2497 -69.6140 -69.6139 -69.6006 -64.7071 -31.6971 -31.6807 -31.6786
    -9.5145  -8.8061   2.0692   2.2133   2.3449   3.0259   3.2168   4.6125
     5.5428   6.1145   6.1450   7.0804   7.3971

     occupation numbers 
     1.0000   1.0000   1.0000   1.0000   1.0000   1.0000   1.0000   1.0000
     1.0000   1.0000   1.0000   1.0000   1.0000   1.0000   1.0000   1.0000
     1.0000   1.0000   1.0000   1.0000   1.0000

          k =-0.0000 0.1443-0.3999 (  3680 PWs)   bands (ev):

  -115.2497 -69.6140 -69.6139 -69.6006 -64.7071 -31.6973 -31.6806 -31.6786
    -9.4194  -8.8956   2.0501   2.2151   2.2838   2.9765   3.1937   4.6797
     5.4507   6.1979   6.2260   7.0308   7.3752

     occupation numbers 
     1.0000   1.0000   1.0000   1.0000   1.0000   1.0000   1.0000   1.0000
     1.0000   1.0000   1.0000   1.0000   1.0000   1.0000   1.0000   1.0000
     1.0000   1.0000   1.0000   1.0000   1.0000

          k =-0.0000 0.1443-0.2999 (  3667 PWs)   bands (ev):

  -115.2497 -69.6140 -69.6139 -69.6006 -64.7071 -31.6971 -31.6807 -31.6786
    -9.5145  -8.8062   2.0708   2.2139   2.3424   3.0267   3.2161   4.6040
     5.5710   6.0984   6.1401   7.0860   7.3917

     occupation numbers 
     1.0000   1.0000   1.0000   1.0000   1.0000   1.0000   1.0000   1.0000
     1.0000   1.0000   1.0000   1.0000   1.0000   1.0000   1.0000   1.0000
     1.0000   1.0000   1.0000   1.0000   1.0000

          k =-0.0000 0.1443-0.1999 (  3667 PWs)   bands (ev):

  -115.2497 -69.6140 -69.6139 -69.6006 -64.7071 -31.6966 -31.6807 -31.6786
    -9.6782  -8.6566   2.0931   2.2106   2.5472   3.1567   3.2733   4.3971
     5.7536   5.9641   6.0119   7.1846   7.3812

     occupation numbers 
     1.0000   1.0000   1.0000   1.0000   1.0000   1.0000   1.0000   1.0000
     1.0000   1.0000   1.0000   1.0000   1.0000   1.0000   1.0000   1.0000
     1.0000   1.0000   1.0000   1.0000   1.0000

          k =-0.0000 0.1443-0.1000 (  3659 PWs)   bands (ev):

  -115.2497 -69.6140 -69.6139 -69.6006 -64.7071 -31.6960 -31.6807 -31.6786
    -9.8024  -8.5470   2.1003   2.2072   2.8387   3.3347   3.3466   4.0659
     5.6091   5.8078   6.4047   7.2324   7.2590

     occupation numbers 
     1.0000   1.0000   1.0000   1.0000   1.0000   1.0000   1.0000   1.0000
     1.0000   1.0000   1.0000   1.0000   1.0000   1.0000   1.0000   1.0000
     1.0000   1.0000   1.0000   1.0000   1.0000

          k =-0.0000 0.2887-0.0000 (  3662 PWs)   bands (ev):

  -115.2496 -69.6143 -69.6139 -69.6006 -64.7068 -31.6952 -31.6872 -31.6801
    -9.6323  -8.5234   2.0820   2.4238   2.8535   3.3477   3.6932   4.0494
     4.8836   5.5035   5.9096   6.7240   6.9745

     occupation numbers 
     1.0000   1.0000   1.0000   1.0000   1.0000   1.0000   1.0000   1.0000
     1.0000   1.0000   1.0000   1.0000   1.0000   1.0000   1.0000   1.0000
     1.0000   1.0000   1.0000   1.0000   1.0000

          k =-0.0000 0.2887 0.1000 (  3671 PWs)   bands (ev):

  -115.2497 -69.6143 -69.6140 -69.6006 -64.7068 -31.6955 -31.6872 -31.6801
    -9.5942  -8.5492   2.0783   2.4254   2.7494   3.3197   3.3602   4.2888
     5.0219   5.5768   5.7222   6.9305   6.9897

     occupation numbers 
     1.0000   1.0000   1.0000   1.0000   1.0000   1.0000   1.0000   1.0000
     1.0000   1.0000   1.0000   1.0000   1.0000   1.0000   1.0000   1.0000
     1.0000   1.0000   1.0000   1.0000   1.0000

          k =-0.0000 0.2887 0.1999 (  3665 PWs)   bands (ev):

  -115.2497 -69.6143 -69.6140 -69.6006 -64.7068 -31.6960 -31.6872 -31.6800
    -9.4909  -8.6230   2.0565   2.4306   2.5339   2.9575   3.2550   4.4904
     5.1209   5.7148   5.7652   6.8096   7.3470

     occupation numbers 
     1.0000   1.0000   1.0000   1.0000   1.0000   1.0000   1.0000   1.0000
     1.0000   1.0000   1.0000   1.0000   1.0000   1.0000   1.0000   1.0000
     1.0000   1.0000   1.0000   1.0000   1.0000

          k =-0.0000 0.2887 0.2999 (  3663 PWs)   bands (ev):

  -115.2497 -69.6143 -69.6140 -69.6006 -64.7068 -31.6965 -31.6872 -31.6800
    -9.3607  -8.7238   2.0025   2.3856   2.4369   2.6715   3.1941   4.6367
     4.9603   6.0045   6.0047   6.6332   7.5366

     occupation numbers 
     1.0000   1.0000   1.0000   1.0000   1.0000   1.0000   1.0000   1.0000
     1.0000   1.0000   1.0000   1.0000   1.0000   1.0000   1.0000   1.0000
     1.0000   1.0000   1.0000   1.0000   1.0000

          k =-0.0000 0.2887-0.3999 (  3658 PWs)   bands (ev):

  -115.2496 -69.6143 -69.6140 -69.6006 -64.7068 -31.6967 -31.6871 -31.6800
    -9.2907  -8.7818   1.9701   2.3423   2.4402   2.5676   3.1693   4.6942
     4.8880   6.1412   6.1532   6.5098   7.5737

     occupation numbers 
     1.0000   1.0000   1.0000   1.0000   1.0000   1.0000   1.0000   1.0000
     1.0000   1.0000   1.0000   1.0000   1.0000   1.0000   1.0000   1.0000
     1.0000   1.0000   1.0000   1.0000   1.0000

          k =-0.0000 0.2887-0.2999 (  3663 PWs)   bands (ev):

  -115.2497 -69.6143 -69.6140 -69.6006 -64.7068 -31.6965 -31.6872 -31.6800
    -9.3607  -8.7239   2.0107   2.3688   2.4383   2.6798   3.1927   4.5846
     5.0370   5.9896   5.9943   6.6444   7.5219

     occupation numbers 
     1.0000   1.0000   1.0000   1.0000   1.0000   1.0000   1.0000   1.0000
     1.0000   1.0000   1.0000   1.0000   1.0000   1.0000   1.0000   1.0000
     1.0000   1.0000   1.0000   1.0000   1.0000

          k =-0.0000 0.2887-0.1999 (  3665 PWs)   bands (ev):

  -115.2497 -69.6143 -69.6140 -69.6006 -64.7068 -31.6960 -31.6872 -31.6800
    -9.4908  -8.6230   2.0600   2.4324   2.5279   2.9614   3.2532   4.4437
     5.2134   5.6855   5.7566   6.8196   7.3217

     occupation numbers 
     1.0000   1.0000   1.0000   1.0000   1.0000   1.0000   1.0000   1.0000
     1.0000   1.0000   1.0000   1.0000   1.0000   1.0000   1.0000   1.0000
     1.0000   1.0000   1.0000   1.0000   1.0000

          k =-0.0000 0.2887-0.1000 (  3671 PWs)   bands (ev):

  -115.2497 -69.6143 -69.6140 -69.6006 -64.7068 -31.6955 -31.6872 -31.6801
    -9.5942  -8.5492   2.0780   2.4266   2.7504   3.3186   3.3665   4.2541
     5.0558   5.5721   5.7395   6.9361   6.9614

     occupation numbers 
     1.0000   1.0000   1.0000   1.0000   1.0000   1.0000   1.0000   1.0000
     1.0000   1.0000   1.0000   1.0000   1.0000   1.0000   1.0000   1.0000
     1.0000   1.0000   1.0000   1.0000   1.0000

          k =-0.0000 0.4330-0.0000 (  3662 PWs)   bands (ev):

  -115.2496 -69.6146 -69.6141 -69.6006 -64.7065 -31.6947 -31.6937 -31.6815
    -9.3736  -8.5778   2.1366   2.6963   2.7825   3.3342   3.5635   4.3691
     4.5241   5.1811   5.2220   6.4045   6.7116

     occupation numbers 
     1.0000   1.0000   1.0000   1.0000   1.0000   1.0000   1.0000   1.0000
     1.0000   1.0000   1.0000   1.0000   1.0000   1.0000   1.0000   1.0000
     1.0000   1.0000   1.0000   1.0000   1.0000

          k =-0.0000 0.4330 0.1000 (  3669 PWs)   bands (ev):

  -115.2496 -69.6146 -69.6141 -69.6006 -64.7065 -31.6949 -31.6937 -31.6815
    -9.3466  -8.5861   2.1323   2.6740   2.6981   3.3048   3.3703   4.0607
     4.7940   5.2571   5.3537   6.6608   6.6810

     occupation numbers 
     1.0000   1.0000   1.0000   1.0000   1.0000   1.0000   1.0000   1.0000
     1.0000   1.0000   1.0000   1.0000   1.0000   1.0000   1.0000   1.0000
     1.0000   1.0000   1.0000   1.0000   1.0000

          k =-0.0000 0.4330 0.1999 (  3663 PWs)   bands (ev):

  -115.2496 -69.6146 -69.6141 -69.6006 -64.7065 -31.6954 -31.6937 -31.6815
    -9.2764  -8.6109   2.1023   2.4704   2.7046   2.8896   3.2369   3.9576
     4.8527   5.4556   5.7330   6.5186   7.1979

     occupation numbers 
     1.0000   1.0000   1.0000   1.0000   1.0000   1.0000   1.0000   1.0000
     1.0000   1.0000   1.0000   1.0000   1.0000   1.0000   1.0000   1.0000
     1.0000   1.0000   1.0000   1.0000   1.0000

          k =-0.0000 0.4330 0.2999 (  3658 PWs)   bands (ev):

  -115.2496 -69.6146 -69.6141 -69.6006 -64.7065 -31.6959 -31.6936 -31.6815
    -9.1959  -8.6457   2.0361   2.3203   2.5108   2.7131   3.1729   3.9424
     4.8542   5.7204   6.0686   6.3045   7.5811

     occupation numbers 
     1.0000   1.0000   1.0000   1.0000   1.0000   1.0000   1.0000   1.0000
     1.0000   1.0000   1.0000   1.0000   1.0000   1.0000   1.0000   1.0000
     1.0000   1.0000   1.0000   1.0000   1.0000

          k =-0.0000 0.4330-0.3999 (  3654 PWs)   bands (ev):

  -115.2496 -69.6146 -69.6141 -69.6006 -64.7065 -31.6961 -31.6936 -31.6815
    -9.1579  -8.6647   2.0103   2.2158   2.4213   2.7180   3.1464   3.9382
     4.8558   5.9314   6.1133   6.2059   7.6992

     occupation numbers 
     1.0000   1.0000   1.0000   1.0000   1.0000   1.0000   1.0000   1.0000
     1.0000   1.0000   1.0000   1.0000   1.0000   1.0000   1.0000   1.0000
     1.0000   1.0000   1.0000   1.0000   1.0000

          k =-0.0000 0.4330-0.2999 (  3658 PWs)   bands (ev):

  -115.2496 -69.6146 -69.6141 -69.6006 -64.7065 -31.6959 -31.6936 -31.6815
    -9.1959  -8.6458   2.0531   2.2826   2.5319   2.7150   3.1710   3.9351
     4.8667   5.7125   6.0738   6.3130   7.5648

     occupation numbers 
     1.0000   1.0000   1.0000   1.0000   1.0000   1.0000   1.0000   1.0000
     1.0000   1.0000   1.0000   1.0000   1.0000   1.0000   1.0000   1.0000
     1.0000   1.0000   1.0000   1.0000   1.0000

          k =-0.0000 0.4330-0.1999 (  3663 PWs)   bands (ev):

  -115.2496 -69.6146 -69.6141 -69.6006 -64.7065 -31.6954 -31.6937 -31.6815
    -9.2763  -8.6110   2.1039   2.4663   2.7071   2.8963   3.2345   3.9403
     4.8648   5.4496   5.7561   6.5255   7.1690

     occupation numbers 
     1.0000   1.0000   1.0000   1.0000   1.0000   1.0000   1.0000   1.0000
     1.0000   1.0000   1.0000   1.0000   1.0000   1.0000   1.0000   1.0000
     1.0000   1.0000   1.0000   1.0000   1.0000

          k =-0.0000 0.4330-0.1000 (  3669 PWs)   bands (ev):

  -115.2496 -69.6146 -69.6141 -69.6006 -64.7065 -31.6949 -31.6937 -31.6815
    -9.3466  -8.5861   2.1290   2.6786   2.6997   3.3033   3.3849   4.0309
     4.7732   5.2539   5.4178   6.6475   6.6647

     occupation numbers 
     1.0000   1.0000   1.0000   1.0000   1.0000   1.0000   1.0000   1.0000
     1.0000   1.0000   1.0000   1.0000   1.0000   1.0000   1.0000   1.0000
     1.0000   1.0000   1.0000   1.0000   1.0000

          k = 0.0000-0.5774 0.0000 (  3670 PWs)   bands (ev):

  -115.2496 -69.6148 -69.6141 -69.6006 -64.7064 -31.6964 -31.6945 -31.6821
    -9.2393  -8.6261   2.1968   2.7607   2.8361   3.3291   3.4260   4.2555
     4.7517   4.9494   5.0121   6.2171   6.6166

     occupation numbers 
     1.0000   1.0000   1.0000   1.0000   1.0000   1.0000   1.0000   1.0000
     1.0000   1.0000   1.0000   1.0000   1.0000   1.0000   1.0000   1.0000
     1.0000   1.0000   1.0000   1.0000   1.0000

          k = 0.0000-0.5774 0.1000 (  3666 PWs)   bands (ev):

  -115.2496 -69.6147 -69.6141 -69.6006 -64.7064 -31.6964 -31.6947 -31.6821
    -9.2205  -8.6235   2.1834   2.6603   2.8383   3.2985   3.3722   3.8133
     4.6580   5.0862   5.4660   6.4782   6.5668

     occupation numbers 
     1.0000   1.0000   1.0000   1.0000   1.0000   1.0000   1.0000   1.0000
     1.0000   1.0000   1.0000   1.0000   1.0000   1.0000   1.0000   1.0000
     1.0000   1.0000   1.0000   1.0000   1.0000

          k = 0.0000-0.5774 0.1999 (  3660 PWs)   bands (ev):

  -115.2496 -69.6147 -69.6141 -69.6006 -64.7064 -31.6964 -31.6952 -31.6821
    -9.1733  -8.6184   2.1295   2.4825   2.8444   2.9194   3.2297   3.5720
     4.7486   5.2802   5.8610   6.4256   7.0891

     occupation numbers 
     1.0000   1.0000   1.0000   1.0000   1.0000   1.0000   1.0000   1.0000
     1.0000   1.0000   1.0000   1.0000   1.0000   1.0000   1.0000   1.0000
     1.0000   1.0000   1.0000   1.0000   1.0000

          k = 0.0000-0.5774 0.2999 (  3674 PWs)   bands (ev):

  -115.2496 -69.6148 -69.6141 -69.6006 -64.7064 -31.6963 -31.6957 -31.6821
    -9.1234  -8.6156   2.0537   2.3025   2.5218   2.8524   3.1654   3.5535
     4.8050   5.5293   6.1398   6.2229   7.5756

     occupation numbers 
     1.0000   1.0000   1.0000   1.0000   1.0000   1.0000   1.0000   1.0000
     1.0000   1.0000   1.0000   1.0000   1.0000   1.0000   1.0000   1.0000
     1.0000   1.0000   1.0000   1.0000   1.0000

          k = 0.0000-0.5774-0.3999 (  3664 PWs)   bands (ev):

  -115.2496 -69.6147 -69.6141 -69.6005 -64.7064 -31.6963 -31.6959 -31.6821
    -9.1017  -8.6152   2.0527   2.1302   2.4559   2.8566   3.1395   3.5515
     4.8197   5.6922   6.0776   6.2546   7.7399

     occupation numbers 
     1.0000   1.0000   1.0000   1.0000   1.0000   1.0000   1.0000   1.0000
     1.0000   1.0000   1.0000   1.0000   1.0000   1.0000   1.0000   1.0000
     1.0000   1.0000   1.0000   1.0000   1.0000

          k = 0.1250 0.0722-0.0000 (  3652 PWs)   bands (ev):

  -115.2497 -69.6140 -69.6139 -69.6006 -64.7071 -31.6958 -31.6807 -31.6786
    -9.8475  -8.5082   2.1018   2.2056   2.9869   3.3617   3.6169   3.7127
     5.5314   5.7470   6.8050   6.9565   7.2843

     occupation numbers 
     1.0000   1.0000   1.0000   1.0000   1.0000   1.0000   1.0000   1.0000
     1.0000   1.0000   1.0000   1.0000   1.0000   1.0000   1.0000   1.0000
     1.0000   1.0000   1.0000   1.0000   1.0000

          k = 0.1250 0.0722 0.1000 (  3659 PWs)   bands (ev):

  -115.2497 -69.6140 -69.6139 -69.6006 -64.7071 -31.6960 -31.6807 -31.6786
    -9.8024  -8.5470   2.1003   2.2072   2.8387   3.3346   3.3466   4.0659
     5.6091   5.8078   6.4047   7.2324   7.2590

     occupation numbers 
     1.0000   1.0000   1.0000   1.0000   1.0000   1.0000   1.0000   1.0000
     1.0000   1.0000   1.0000   1.0000   1.0000   1.0000   1.0000   1.0000
     1.0000   1.0000   1.0000   1.0000   1.0000

          k = 0.1250 0.0722 0.1999 (  3667 PWs)   bands (ev):

  -115.2497 -69.6140 -69.6139 -69.6006 -64.7071 -31.6966 -31.6807 -31.6786
    -9.6782  -8.6566   2.0931   2.2106   2.5472   3.1567   3.2733   4.3971
     5.7536   5.9641   6.0119   7.1846   7.3812

     occupation numbers 
     1.0000   1.0000   1.0000   1.0000   1.0000   1.0000   1.0000   1.0000
     1.0000   1.0000   1.0000   1.0000   1.0000   1.0000   1.0000   1.0000
     1.0000   1.0000   1.0000   1.0000   1.0000

          k = 0.1250 0.0722 0.2999 (  3667 PWs)   bands (ev):

  -115.2497 -69.6140 -69.6139 -69.6006 -64.7071 -31.6971 -31.6807 -31.6786
    -9.5145  -8.8062   2.0708   2.2139   2.3424   3.0267   3.2161   4.6040
     5.5710   6.0984   6.1401   7.0860   7.3917

     occupation numbers 
     1.0000   1.0000   1.0000   1.0000   1.0000   1.0000   1.0000   1.0000
     1.0000   1.0000   1.0000   1.0000   1.0000   1.0000   1.0000   1.0000
     1.0000   1.0000   1.0000   1.0000   1.0000

          k = 0.1250 0.0722-0.3999 (  3680 PWs)   bands (ev):

  -115.2497 -69.6140 -69.6139 -69.6006 -64.7071 -31.6973 -31.6806 -31.6786
    -9.4194  -8.8956   2.0501   2.2151   2.2838   2.9765   3.1937   4.6797
     5.4507   6.1979   6.2260   7.0308   7.3752

     occupation numbers 
     1.0000   1.0000   1.0000   1.0000   1.0000   1.0000   1.0000   1.0000
     1.0000   1.0000   1.0000   1.0000   1.0000   1.0000   1.0000   1.0000
     1.0000   1.0000   1.0000   1.0000   1.0000

          k = 0.1250 0.0722-0.2999 (  3667 PWs)   bands (ev):

  -115.2497 -69.6140 -69.6139 -69.6006 -64.7071 -31.6971 -31.6807 -31.6786
    -9.5145  -8.8061   2.0692   2.2133   2.3449   3.0259   3.2168   4.6125
     5.5428   6.1145   6.1450   7.0804   7.3971

     occupation numbers 
     1.0000   1.0000   1.0000   1.0000   1.0000   1.0000   1.0000   1.0000
     1.0000   1.0000   1.0000   1.0000   1.0000   1.0000   1.0000   1.0000
     1.0000   1.0000   1.0000   1.0000   1.0000

          k = 0.1250 0.0722-0.1999 (  3667 PWs)   bands (ev):

  -115.2497 -69.6140 -69.6139 -69.6006 -64.7071 -31.6966 -31.6807 -31.6786
    -9.6783  -8.6565   2.0926   2.2097   2.5484   3.1556   3.2741   4.4051
     5.7074   5.9693   6.0439   7.1783   7.3906

     occupation numbers 
     1.0000   1.0000   1.0000   1.0000   1.0000   1.0000   1.0000   1.0000
     1.0000   1.0000   1.0000   1.0000   1.0000   1.0000   1.0000   1.0000
     1.0000   1.0000   1.0000   1.0000   1.0000

          k = 0.1250 0.0722-0.1000 (  3659 PWs)   bands (ev):

  -115.2497 -69.6140 -69.6139 -69.6006 -64.7071 -31.6960 -31.6807 -31.6786
    -9.8024  -8.5470   2.1005   2.2066   2.8387   3.3352   3.3452   4.0708
     5.5990   5.8109   6.4022   7.2438   7.2552

     occupation numbers 
     1.0000   1.0000   1.0000   1.0000   1.0000   1.0000   1.0000   1.0000
     1.0000   1.0000   1.0000   1.0000   1.0000   1.0000   1.0000   1.0000
     1.0000   1.0000   1.0000   1.0000   1.0000

          k = 0.1250 0.2165-0.0000 (  3665 PWs)   bands (ev):

  -115.2497 -69.6142 -69.6140 -69.6006 -64.7069 -31.6954 -31.6851 -31.6799
    -9.6988  -8.5160   2.0876   2.3527   2.8847   3.3469   3.7049   3.9304
     5.1104   5.4830   6.2220   6.7973   6.9992

     occupation numbers 
     1.0000   1.0000   1.0000   1.0000   1.0000   1.0000   1.0000   1.0000
     1.0000   1.0000   1.0000   1.0000   1.0000   1.0000   1.0000   1.0000
     1.0000   1.0000   1.0000   1.0000   1.0000

          k = 0.1250 0.2165 0.1000 (  3669 PWs)   bands (ev):

  -115.2497 -69.6142 -69.6140 -69.6006 -64.7069 -31.6956 -31.6851 -31.6799
    -9.6583  -8.5460   2.0842   2.3545   2.7773   3.3176   3.3605   4.2394
     5.2054   5.5675   5.9800   6.9492   7.0786

     occupation numbers 
     1.0000   1.0000   1.0000   1.0000   1.0000   1.0000   1.0000   1.0000
     1.0000   1.0000   1.0000   1.0000   1.0000   1.0000   1.0000   1.0000
     1.0000   1.0000   1.0000   1.0000   1.0000

          k = 0.1250 0.2165 0.1999 (  3672 PWs)   bands (ev):

  -115.2497 -69.6142 -69.6140 -69.6006 -64.7069 -31.6962 -31.6850 -31.6799
    -9.5481  -8.6312   2.0662   2.3594   2.5446   3.0102   3.2512   4.5111
     5.2885   5.7668   5.8465   6.8399   7.3983

     occupation numbers 
     1.0000   1.0000   1.0000   1.0000   1.0000   1.0000   1.0000   1.0000
     1.0000   1.0000   1.0000   1.0000   1.0000   1.0000   1.0000   1.0000
     1.0000   1.0000   1.0000   1.0000   1.0000

          k = 0.1250 0.2165 0.2999 (  3661 PWs)   bands (ev):

  -115.2497 -69.6142 -69.6140 -69.6006 -64.7069 -31.6967 -31.6850 -31.6799
    -9.4069  -8.7476   2.0188   2.3616   2.3797   2.7740   3.1891   4.6964
     5.1199   5.9453   6.1103   6.6768   7.5530

     occupation numbers 
     1.0000   1.0000   1.0000   1.0000   1.0000   1.0000   1.0000   1.0000
     1.0000   1.0000   1.0000   1.0000   1.0000   1.0000   1.0000   1.0000
     1.0000   1.0000   1.0000   1.0000   1.0000

          k = 0.1250 0.2165-0.3999 (  3660 PWs)   bands (ev):

  -115.2497 -69.6142 -69.6139 -69.6006 -64.7069 -31.6969 -31.6850 -31.6798
    -9.3289  -8.8155   1.9848   2.3286   2.3714   2.6861   3.1645   4.8068
     4.9865   6.0727   6.2396   6.5698   7.5836

     occupation numbers 
     1.0000   1.0000   1.0000   1.0000   1.0000   1.0000   1.0000   1.0000
     1.0000   1.0000   1.0000   1.0000   1.0000   1.0000   1.0000   1.0000
     1.0000   1.0000   1.0000   1.0000   1.0000

          k = 0.1250 0.2165-0.2999 (  3661 PWs)   bands (ev):

  -115.2497 -69.6142 -69.6140 -69.6006 -64.7069 -31.6967 -31.6850 -31.6799
    -9.4069  -8.7477   2.0188   2.3616   2.3797   2.7740   3.1891   4.6964
     5.1199   5.9453   6.1103   6.6768   7.5530

     occupation numbers 
     1.0000   1.0000   1.0000   1.0000   1.0000   1.0000   1.0000   1.0000
     1.0000   1.0000   1.0000   1.0000   1.0000   1.0000   1.0000   1.0000
     1.0000   1.0000   1.0000   1.0000   1.0000

          k = 0.1250 0.2165-0.1999 (  3672 PWs)   bands (ev):

  -115.2497 -69.6142 -69.6140 -69.6006 -64.7069 -31.6962 -31.6850 -31.6799
    -9.5481  -8.6312   2.0662   2.3594   2.5446   3.0102   3.2512   4.5111
     5.2885   5.7668   5.8465   6.8399   7.3983

     occupation numbers 
     1.0000   1.0000   1.0000   1.0000   1.0000   1.0000   1.0000   1.0000
     1.0000   1.0000   1.0000   1.0000   1.0000   1.0000   1.0000   1.0000
     1.0000   1.0000   1.0000   1.0000   1.0000

          k = 0.1250 0.2165-0.1000 (  3669 PWs)   bands (ev):

  -115.2497 -69.6142 -69.6140 -69.6006 -64.7069 -31.6956 -31.6851 -31.6799
    -9.6583  -8.5460   2.0842   2.3545   2.7773   3.3176   3.3605   4.2394
     5.2054   5.5675   5.9800   6.9492   7.0786

     occupation numbers 
     1.0000   1.0000   1.0000   1.0000   1.0000   1.0000   1.0000   1.0000
     1.0000   1.0000   1.0000   1.0000   1.0000   1.0000   1.0000   1.0000
     1.0000   1.0000   1.0000   1.0000   1.0000

          k = 0.1250 0.3608-0.0000 (  3670 PWs)   bands (ev):

  -115.2496 -69.6145 -69.6141 -69.6006 -64.7066 -31.6949 -31.6910 -31.6819
    -9.4578  -8.5542   2.1397   2.6022   2.8090   3.3224   3.6355   4.3621
     4.5665   5.0714   5.6080   6.5109   6.6434

     occupation numbers 
     1.0000   1.0000   1.0000   1.0000   1.0000   1.0000   1.0000   1.0000
     1.0000   1.0000   1.0000   1.0000   1.0000   1.0000   1.0000   1.0000
     1.0000   1.0000   1.0000   1.0000   1.0000

          k = 0.1250 0.3608 0.1000 (  3668 PWs)   bands (ev):

  -115.2496 -69.6145 -69.6141 -69.6006 -64.7066 -31.6951 -31.6910 -31.6819
    -9.4267  -8.5686   2.1379   2.5964   2.7143   3.2880   3.3764   4.2564
     4.7354   5.3203   5.5080   6.5803   6.8089

     occupation numbers 
     1.0000   1.0000   1.0000   1.0000   1.0000   1.0000   1.0000   1.0000
     1.0000   1.0000   1.0000   1.0000   1.0000   1.0000   1.0000   1.0000
     1.0000   1.0000   1.0000   1.0000   1.0000

          k = 0.1250 0.3608 0.1999 (  3670 PWs)   bands (ev):

  -115.2496 -69.6145 -69.6141 -69.6006 -64.7066 -31.6956 -31.6910 -31.6819
    -9.3443  -8.6105   2.1168   2.4820   2.6297   2.9050   3.2135   4.2419
     4.8648   5.4304   5.8182   6.4238   7.3071

     occupation numbers 
     1.0000   1.0000   1.0000   1.0000   1.0000   1.0000   1.0000   1.0000
     1.0000   1.0000   1.0000   1.0000   1.0000   1.0000   1.0000   1.0000
     1.0000   1.0000   1.0000   1.0000   1.0000

          k = 0.1250 0.3608 0.2999 (  3650 PWs)   bands (ev):

  -115.2496 -69.6145 -69.6141 -69.6006 -64.7066 -31.6961 -31.6909 -31.6819
    -9.2463  -8.6680   2.0469   2.3593   2.5411   2.6405   3.1424   4.2539
     4.8938   5.5978   6.1271   6.2486   7.6711

     occupation numbers 
     1.0000   1.0000   1.0000   1.0000   1.0000   1.0000   1.0000   1.0000
     1.0000   1.0000   1.0000   1.0000   1.0000   1.0000   1.0000   1.0000
     1.0000   1.0000   1.0000   1.0000   1.0000

          k = 0.1250 0.3608-0.3999 (  3658 PWs)   bands (ev):

  -115.2496 -69.6145 -69.6141 -69.6006 -64.7066 -31.6963 -31.6909 -31.6819
    -9.1977  -8.6997   2.0005   2.3262   2.4204   2.6412   3.1133   4.2558
     4.8950   5.8312   5.9230   6.3547   7.7891

     occupation numbers 
     1.0000   1.0000   1.0000   1.0000   1.0000   1.0000   1.0000   1.0000
     1.0000   1.0000   1.0000   1.0000   1.0000   1.0000   1.0000   1.0000
     1.0000   1.0000   1.0000   1.0000   1.0000

          k = 0.1250 0.3608-0.2999 (  3650 PWs)   bands (ev):

  -115.2496 -69.6145 -69.6141 -69.6006 -64.7066 -31.6961 -31.6909 -31.6819
    -9.2463  -8.6680   2.0553   2.3391   2.5519   2.6425   3.1413   4.2432
     4.9140   5.5903   6.1202   6.2589   7.6629

     occupation numbers 
     1.0000   1.0000   1.0000   1.0000   1.0000   1.0000   1.0000   1.0000
     1.0000   1.0000   1.0000   1.0000   1.0000   1.0000   1.0000   1.0000
     1.0000   1.0000   1.0000   1.0000   1.0000

          k = 0.1250 0.3608-0.1999 (  3670 PWs)   bands (ev):

  -115.2496 -69.6145 -69.6141 -69.6006 -64.7066 -31.6956 -31.6910 -31.6819
    -9.3443  -8.6106   2.1183   2.4812   2.6284   2.9086   3.2121   4.2224
     4.8898   5.4272   5.8233   6.4244   7.2940

     occupation numbers 
     1.0000   1.0000   1.0000   1.0000   1.0000   1.0000   1.0000   1.0000
     1.0000   1.0000   1.0000   1.0000   1.0000   1.0000   1.0000   1.0000
     1.0000   1.0000   1.0000   1.0000   1.0000

          k = 0.1250 0.3608-0.1000 (  3668 PWs)   bands (ev):

  -115.2496 -69.6145 -69.6141 -69.6006 -64.7066 -31.6951 -31.6910 -31.6819
    -9.4267  -8.5686   2.1363   2.5994   2.7144   3.2879   3.3819   4.2308
     4.7443   5.3209   5.5335   6.5679   6.8030

     occupation numbers 
     1.0000   1.0000   1.0000   1.0000   1.0000   1.0000   1.0000   1.0000
     1.0000   1.0000   1.0000   1.0000   1.0000   1.0000   1.0000   1.0000
     1.0000   1.0000   1.0000   1.0000   1.0000

          k = 0.1250 0.5052-0.0000 (  3666 PWs)   bands (ev):

  -115.2496 -69.6147 -69.6142 -69.6006 -64.7064 -31.6952 -31.6945 -31.6834
    -9.2439  -8.6221   2.2644   2.7726   2.8386   3.3050   3.4509   4.2151
     4.7385   4.8941   5.0887   6.2203   6.4413

     occupation numbers 
     1.0000   1.0000   1.0000   1.0000   1.0000   1.0000   1.0000   1.0000
     1.0000   1.0000   1.0000   1.0000   1.0000   1.0000   1.0000   1.0000
     1.0000   1.0000   1.0000   1.0000   1.0000

          k = 0.1250 0.5052 0.1000 (  3667 PWs)   bands (ev):

  -115.2496 -69.6147 -69.6142 -69.6006 -64.7064 -31.6952 -31.6947 -31.6834
    -9.2247  -8.6201   2.2594   2.6608   2.8508   3.2668   3.3735   3.8849
     4.5444   5.0303   5.5471   6.3568   6.5253

     occupation numbers 
     1.0000   1.0000   1.0000   1.0000   1.0000   1.0000   1.0000   1.0000
     1.0000   1.0000   1.0000   1.0000   1.0000   1.0000   1.0000   1.0000
     1.0000   1.0000   1.0000   1.0000   1.0000

          k = 0.1250 0.5052 0.1999 (  3661 PWs)   bands (ev):

  -115.2496 -69.6147 -69.6142 -69.6006 -64.7064 -31.6952 -31.6951 -31.6834
    -9.1764  -8.6165   2.2189   2.4768   2.8589   2.9184   3.1890   3.6677
     4.6918   5.0756   5.9893   6.2231   7.1572

     occupation numbers 
     1.0000   1.0000   1.0000   1.0000   1.0000   1.0000   1.0000   1.0000
     1.0000   1.0000   1.0000   1.0000   1.0000   1.0000   1.0000   1.0000
[...]
    -9.1764  -8.6166   2.2168   2.4798   2.8577   2.9232   3.1884   3.6603
     4.6921   5.0784   5.9982   6.2228   7.1468

     occupation numbers 
     1.0000   1.0000   1.0000   1.0000   1.0000   1.0000   1.0000   1.0000
     1.0000   1.0000   1.0000   1.0000   1.0000   1.0000   1.0000   1.0000
     1.0000   1.0000   1.0000   1.0000   1.0000

          k =-0.5000-0.1443-0.1000 (  3667 PWs)   bands (ev):

  -115.2496 -69.6147 -69.6142 -69.6006 -64.7064 -31.6952 -31.6947 -31.6834
    -9.2246  -8.6201   2.2555   2.6678   2.8495   3.2666   3.3828   3.8703
     4.5339   5.0363   5.5725   6.3390   6.5246

     occupation numbers 
     1.0000   1.0000   1.0000   1.0000   1.0000   1.0000   1.0000   1.0000
     1.0000   1.0000   1.0000   1.0000   1.0000   1.0000   1.0000   1.0000
     1.0000   1.0000   1.0000   1.0000   1.0000

          k =-0.5000 0.0000 0.0000 (  3667 PWs)   bands (ev):

  -115.2496 -69.6146 -69.6142 -69.6006 -64.7064 -31.6945 -31.6936 -31.6850
    -9.2484  -8.6182   2.3364   2.7826   2.8448   3.2806   3.4918   4.1457
     4.6855   4.8410   5.2494   6.2053   6.2500

     occupation numbers 
     1.0000   1.0000   1.0000   1.0000   1.0000   1.0000   1.0000   1.0000
     1.0000   1.0000   1.0000   1.0000   1.0000   1.0000   1.0000   1.0000
     1.0000   1.0000   1.0000   1.0000   1.0000

          k =-0.5000 0.0000 0.1000 (  3658 PWs)   bands (ev):

  -115.2496 -69.6146 -69.6142 -69.6006 -64.7064 -31.6947 -31.6936 -31.6850
    -9.2288  -8.6167   2.3388   2.6696   2.8595   3.2326   3.3871   4.0510
     4.2327   5.1189   5.6133   6.1640   6.5149

     occupation numbers 
     1.0000   1.0000   1.0000   1.0000   1.0000   1.0000   1.0000   1.0000
     1.0000   1.0000   1.0000   1.0000   1.0000   1.0000   1.0000   1.0000
     1.0000   1.0000   1.0000   1.0000   1.0000

          k =-0.5000 0.0000 0.1999 (  3664 PWs)   bands (ev):

  -115.2496 -69.6146 -69.6142 -69.6006 -64.7064 -31.6952 -31.6935 -31.6850
    -9.1794  -8.6147   2.3362   2.4544   2.8665   2.9164   3.1485   3.8295
     4.4374   5.0788   5.9552   6.1379   7.1924

     occupation numbers 
     1.0000   1.0000   1.0000   1.0000   1.0000   1.0000   1.0000   1.0000
     1.0000   1.0000   1.0000   1.0000   1.0000   1.0000   1.0000   1.0000
     1.0000   1.0000   1.0000   1.0000   1.0000

          k =-0.5000-0.0000 0.2999 (  3652 PWs)   bands (ev):

  -115.2496 -69.6146 -69.6142 -69.6006 -64.7064 -31.6957 -31.6935 -31.6849
    -9.1268  -8.6154   2.2430   2.3086   2.5312   2.8878   3.0638   3.8019
     4.7004   5.0276   5.7310   6.4498   7.7809

     occupation numbers 
     1.0000   1.0000   1.0000   1.0000   1.0000   1.0000   1.0000   1.0000
     1.0000   1.0000   1.0000   1.0000   1.0000   1.0000   1.0000   1.0000
     1.0000   1.0000   1.0000   1.0000   1.0000

          k =-0.5000 0.0000-0.3999 (  3652 PWs)   bands (ev):

  -115.2496 -69.6146 -69.6142 -69.6006 -64.7064 -31.6959 -31.6935 -31.6849
    -9.1037  -8.6167   2.1608   2.2335   2.4604   2.8976   3.0279   3.7984
     4.8748   4.9768   5.5965   6.5695   8.0013

     occupation numbers 
     1.0000   1.0000   1.0000   1.0000   1.0000   1.0000   1.0000   1.0000
     1.0000   1.0000   1.0000   1.0000   1.0000   1.0000   1.0000   1.0000
     1.0000   1.0000   1.0000   1.0000   1.0000

          k =-0.5000 0.0000-0.2999 (  3652 PWs)   bands (ev):

  -115.2496 -69.6146 -69.6142 -69.6006 -64.7064 -31.6957 -31.6935 -31.6849
    -9.1268  -8.6154   2.2430   2.3086   2.5312   2.8878   3.0638   3.8019
     4.7004   5.0276   5.7310   6.4498   7.7809

     occupation numbers 
     1.0000   1.0000   1.0000   1.0000   1.0000   1.0000   1.0000   1.0000
     1.0000   1.0000   1.0000   1.0000   1.0000   1.0000   1.0000   1.0000
     1.0000   1.0000   1.0000   1.0000   1.0000

          k =-0.5000 0.0000-0.1999 (  3664 PWs)   bands (ev):

  -115.2496 -69.6146 -69.6142 -69.6006 -64.7064 -31.6952 -31.6935 -31.6850
    -9.1794  -8.6147   2.3362   2.4544   2.8665   2.9164   3.1485   3.8295
     4.4374   5.0788   5.9552   6.1379   7.1924

     occupation numbers 
     1.0000   1.0000   1.0000   1.0000   1.0000   1.0000   1.0000   1.0000
     1.0000   1.0000   1.0000   1.0000   1.0000   1.0000   1.0000   1.0000
     1.0000   1.0000   1.0000   1.0000   1.0000

          k =-0.5000 0.0000-0.1000 (  3658 PWs)   bands (ev):

  -115.2496 -69.6146 -69.6142 -69.6006 -64.7064 -31.6947 -31.6936 -31.6850
    -9.2288  -8.6167   2.3388   2.6696   2.8595   3.2326   3.3871   4.0510
     4.2327   5.1189   5.6133   6.1640   6.5149

     occupation numbers 
     1.0000   1.0000   1.0000   1.0000   1.0000   1.0000   1.0000   1.0000
     1.0000   1.0000   1.0000   1.0000   1.0000   1.0000   1.0000   1.0000
     1.0000   1.0000   1.0000   1.0000   1.0000

          k =-0.5000 0.1443-0.0000 (  3666 PWs)   bands (ev):

  -115.2496 -69.6147 -69.6142 -69.6006 -64.7064 -31.6952 -31.6945 -31.6834
    -9.2439  -8.6221   2.2644   2.7726   2.8386   3.3050   3.4509   4.2151
     4.7385   4.8941   5.0887   6.2203   6.4413

     occupation numbers 
     1.0000   1.0000   1.0000   1.0000   1.0000   1.0000   1.0000   1.0000
     1.0000   1.0000   1.0000   1.0000   1.0000   1.0000   1.0000   1.0000
     1.0000   1.0000   1.0000   1.0000   1.0000

          k =-0.5000 0.1443 0.1000 (  3667 PWs)   bands (ev):

  -115.2496 -69.6147 -69.6142 -69.6006 -64.7064 -31.6952 -31.6947 -31.6834
    -9.2246  -8.6201   2.2555   2.6678   2.8495   3.2666   3.3828   3.8703
     4.5339   5.0363   5.5725   6.3390   6.5246

     occupation numbers 
     1.0000   1.0000   1.0000   1.0000   1.0000   1.0000   1.0000   1.0000
     1.0000   1.0000   1.0000   1.0000   1.0000   1.0000   1.0000   1.0000
     1.0000   1.0000   1.0000   1.0000   1.0000

          k =-0.5000 0.1443 0.1999 (  3661 PWs)   bands (ev):

  -115.2496 -69.6147 -69.6142 -69.6006 -64.7064 -31.6952 -31.6951 -31.6834
    -9.1764  -8.6166   2.2168   2.4798   2.8577   2.9232   3.1884   3.6603
     4.6921   5.0784   5.9982   6.2228   7.1468

     occupation numbers 
     1.0000   1.0000   1.0000   1.0000   1.0000   1.0000   1.0000   1.0000
     1.0000   1.0000   1.0000   1.0000   1.0000   1.0000   1.0000   1.0000
     1.0000   1.0000   1.0000   1.0000   1.0000

          k =-0.5000 0.1443 0.2999 (  3660 PWs)   bands (ev):

  -115.2496 -69.6147 -69.6142 -69.6006 -64.7064 -31.6957 -31.6951 -31.6833
    -9.1251  -8.6155   2.1398   2.3049   2.5316   2.8771   3.1134   3.6433
     4.8324   5.1961   5.9342   6.3593   7.6899

     occupation numbers 
     1.0000   1.0000   1.0000   1.0000   1.0000   1.0000   1.0000   1.0000
     1.0000   1.0000   1.0000   1.0000   1.0000   1.0000   1.0000   1.0000
     1.0000   1.0000   1.0000   1.0000   1.0000

          k =-0.5000 0.1443-0.3999 (  3652 PWs)   bands (ev):

  -115.2496 -69.6147 -69.6142 -69.6006 -64.7064 -31.6959 -31.6951 -31.6833
    -9.1027  -8.6160   2.1118   2.1718   2.4584   2.8844   3.0825   3.6426
     4.8640   5.3245   5.7868   6.4688   7.8878

     occupation numbers 
     1.0000   1.0000   1.0000   1.0000   1.0000   1.0000   1.0000   1.0000
     1.0000   1.0000   1.0000   1.0000   1.0000   1.0000   1.0000   1.0000
     1.0000   1.0000   1.0000   1.0000   1.0000

          k =-0.5000 0.1443-0.2999 (  3660 PWs)   bands (ev):

  -115.2496 -69.6147 -69.6142 -69.6006 -64.7064 -31.6957 -31.6951 -31.6833
    -9.1251  -8.6155   2.1285   2.3279   2.5190   2.8765   3.1141   3.6456
     4.8284   5.1980   5.9349   6.3553   7.6957

     occupation numbers 
     1.0000   1.0000   1.0000   1.0000   1.0000   1.0000   1.0000   1.0000
     1.0000   1.0000   1.0000   1.0000   1.0000   1.0000   1.0000   1.0000
     1.0000   1.0000   1.0000   1.0000   1.0000

          k =-0.5000 0.1443-0.1999 (  3661 PWs)   bands (ev):

  -115.2496 -69.6147 -69.6142 -69.6006 -64.7064 -31.6952 -31.6951 -31.6834
    -9.1764  -8.6165   2.2189   2.4768   2.8589   2.9184   3.1890   3.6677
     4.6918   5.0756   5.9893   6.2231   7.1572

     occupation numbers 
     1.0000   1.0000   1.0000   1.0000   1.0000   1.0000   1.0000   1.0000
     1.0000   1.0000   1.0000   1.0000   1.0000   1.0000   1.0000   1.0000
     1.0000   1.0000   1.0000   1.0000   1.0000

          k =-0.5000 0.1443-0.1000 (  3667 PWs)   bands (ev):

  -115.2496 -69.6147 -69.6142 -69.6006 -64.7064 -31.6952 -31.6947 -31.6834
    -9.2247  -8.6201   2.2594   2.6608   2.8508   3.2667   3.3735   3.8849
     4.5444   5.0303   5.5471   6.3568   6.5253

     occupation numbers 
     1.0000   1.0000   1.0000   1.0000   1.0000   1.0000   1.0000   1.0000
     1.0000   1.0000   1.0000   1.0000   1.0000   1.0000   1.0000   1.0000
     1.0000   1.0000   1.0000   1.0000   1.0000

          k =-0.5000-0.8660 0.0000 (  3670 PWs)   bands (ev):

  -115.2496 -69.6147 -69.6141 -69.6006 -64.7064 -31.6964 -31.6945 -31.6821
    -9.2393  -8.6261   2.1968   2.7607   2.8361   3.3291   3.4260   4.2555
     4.7517   4.9494   5.0121   6.2171   6.6166

     occupation numbers 
     1.0000   1.0000   1.0000   1.0000   1.0000   1.0000   1.0000   1.0000
     1.0000   1.0000   1.0000   1.0000   1.0000   1.0000   1.0000   1.0000
     1.0000   1.0000   1.0000   1.0000   1.0000

          k =-0.5000-0.8660 0.1000 (  3666 PWs)   bands (ev):

  -115.2496 -69.6147 -69.6141 -69.6006 -64.7064 -31.6964 -31.6947 -31.6821
    -9.2205  -8.6235   2.1834   2.6603   2.8383   3.2985   3.3722   3.8133
     4.6580   5.0862   5.4660   6.4782   6.5668

     occupation numbers 
     1.0000   1.0000   1.0000   1.0000   1.0000   1.0000   1.0000   1.0000
     1.0000   1.0000   1.0000   1.0000   1.0000   1.0000   1.0000   1.0000
     1.0000   1.0000   1.0000   1.0000   1.0000

          k =-0.5000-0.8660 0.1999 (  3660 PWs)   bands (ev):

  -115.2496 -69.6147 -69.6141 -69.6006 -64.7064 -31.6964 -31.6952 -31.6821
    -9.1733  -8.6184   2.1295   2.4825   2.8444   2.9194   3.2297   3.5720
     4.7486   5.2802   5.8610   6.4256   7.0891

     occupation numbers 
     1.0000   1.0000   1.0000   1.0000   1.0000   1.0000   1.0000   1.0000
     1.0000   1.0000   1.0000   1.0000   1.0000   1.0000   1.0000   1.0000
     1.0000   1.0000   1.0000   1.0000   1.0000

          k =-0.5000-0.8660 0.2999 (  3674 PWs)   bands (ev):

  -115.2496 -69.6148 -69.6141 -69.6006 -64.7064 -31.6963 -31.6957 -31.6821
    -9.1234  -8.6156   2.0536   2.3025   2.5218   2.8525   3.1654   3.5535
     4.8050   5.5293   6.1398   6.2228   7.5756

     occupation numbers 
     1.0000   1.0000   1.0000   1.0000   1.0000   1.0000   1.0000   1.0000
     1.0000   1.0000   1.0000   1.0000   1.0000   1.0000   1.0000   1.0000
     1.0000   1.0000   1.0000   1.0000   1.0000

          k =-0.5000-0.8660-0.3999 (  3664 PWs)   bands (ev):

  -115.2496 -69.6147 -69.6141 -69.6005 -64.7064 -31.6963 -31.6959 -31.6821
    -9.1017  -8.6152   2.0527   2.1302   2.4559   2.8566   3.1395   3.5515
     4.8197   5.6922   6.0776   6.2546   7.7399

     occupation numbers 
     1.0000   1.0000   1.0000   1.0000   1.0000   1.0000   1.0000   1.0000
     1.0000   1.0000   1.0000   1.0000   1.0000   1.0000   1.0000   1.0000
     1.0000   1.0000   1.0000   1.0000   1.0000

     highest occupied level (ev):     8.0720

!    total energy              =    -651.12867766 Ry
     Harris-Foulkes estimate   =    -651.12867770 Ry
     estimated scf accuracy    <       0.00000060 Ry

     The total energy is the sum of the following terms:

     one-electron contribution =    -522.43022573 Ry
     hartree contribution      =     275.47586436 Ry
     xc contribution           =     -73.10615687 Ry
     ewald contribution        =    -331.06815942 Ry

     convergence has been achieved in   7 iterations

     Forces acting on atoms (cartesian axes, Ry/au):

     atom    1 type  3   force =    -0.00000018   -0.00000009    0.00664629
     atom    2 type  3   force =    -0.00000069   -0.00000030    0.00598014
     atom    3 type  2   force =     0.00000204    0.00000171   -0.00163800
     atom    4 type  1   force =    -0.00000117   -0.00000133   -0.01098843
     The non-local contrib.  to forces
     atom    1 type  3   force =    -0.00000021   -0.00000209   -0.05892260
     atom    2 type  3   force =     0.00000036    0.00000133   -0.02799773
     atom    3 type  2   force =     0.00000159   -0.00000588   -0.15268649
     atom    4 type  1   force =     0.00000088   -0.00000104   -0.07503256
     The ionic contribution  to forces
     atom    1 type  3   force =    -0.00000377    0.00002693    1.41195519
     atom    2 type  3   force =    -0.00001021    0.00002387   -0.01972826
     atom    3 type  2   force =     0.00000908   -0.00003729   -0.54083818
     atom    4 type  1   force =     0.00000489   -0.00001350   -0.85138875
     The local contribution  to forces
     atom    1 type  3   force =     0.00000104   -0.00002432   -1.34670319
     atom    2 type  3   force =     0.00001115   -0.00002348    0.05367302
     atom    3 type  2   force =    -0.00001211    0.00004243    0.69178085
     atom    4 type  1   force =    -0.00000423    0.00001342    0.91554133
     The core correction contribution to forces
     atom    1 type  3   force =    -0.00000001    0.00000001    0.00034713
     atom    2 type  3   force =     0.00000000   -0.00000002   -0.00010988
     atom    3 type  2   force =     0.00000000    0.00000000    0.00000000
     atom    4 type  1   force =     0.00000000    0.00000000    0.00000000
     The Hubbard contrib.    to forces
     atom    1 type  3   force =     0.00000000    0.00000000    0.00000000
     atom    2 type  3   force =     0.00000000    0.00000000    0.00000000
     atom    3 type  2   force =     0.00000000    0.00000000    0.00000000
     atom    4 type  1   force =     0.00000000    0.00000000    0.00000000
     The SCF correction term to forces
     atom    1 type  3   force =     0.00000000    0.00000000    0.00000000
     atom    2 type  3   force =     0.00000000    0.00000000    0.00000000
     atom    3 type  2   force =     0.00000000    0.00000000    0.00000000
     atom    4 type  1   force =     0.00000000    0.00000000    0.00000000

     Total force =     0.000000     Total SCF correction =     0.000000


     Computing stress (Cartesian axis) and pressure

          total   stress  (Ry/bohr**3)                   (kbar)     P=   10.32
   0.00007194   0.00000000  -0.00000000         10.58      0.00     -0.00
   0.00000000   0.00007193  -0.00000002          0.00     10.58     -0.00
  -0.00000000  -0.00000002   0.00006652         -0.00     -0.00      9.79

     kinetic stress (kbar)  27840.13      0.00     -0.00
                                0.00  27840.13     -0.00
                               -0.00     -0.00  27940.17

     local   stress (kbar)  -6846.78     -0.01     -0.01
                               -0.01  -6846.80     -0.01
                               -0.01     -0.01 -14640.92

     nonloc. stress (kbar)   1859.48      0.00      0.00
                                0.00   1859.48      0.00
                                0.00      0.00   1833.61

     hartree stress (kbar)  43524.29      0.00      0.00
                                0.00  43524.30      0.01
                                0.00      0.01  46659.54

     exc-cor stress (kbar) -11012.82      0.00     -0.00
                                0.00 -11012.82      0.00
                               -0.00      0.00 -11011.93

     corecor stress (kbar)   -262.29     -0.00     -0.00
                               -0.00   -262.29      0.00
                               -0.00      0.00   -262.47

     ewald   stress (kbar) -55091.42      0.01      0.00
                                0.01 -55091.41      0.00
                                0.00      0.00 -50508.22

     hubbard stress (kbar)      0.00      0.00      0.00
                                0.00      0.00      0.00
                                0.00      0.00      0.00

     london  stress (kbar)      0.00      0.00      0.00
                                0.00      0.00      0.00
                                0.00      0.00      0.00

     DFT-D3  stress (kbar)      0.00      0.00      0.00
                                0.00      0.00      0.00
                                0.00      0.00      0.00

     XDM     stress (kbar)      0.00      0.00      0.00
                                0.00      0.00      0.00
                                0.00      0.00      0.00

     dft-nl  stress (kbar)      0.00      0.00      0.00
                                0.00      0.00      0.00
                                0.00      0.00      0.00

     TS-vdW  stress (kbar)      0.00      0.00      0.00
                                0.00      0.00      0.00
                                0.00      0.00      0.00



     Writing output data file ZnO.save/
 
     init_run     :      0.49s CPU      1.19s WALL (       1 calls)
     electrons    :      5.83s CPU      6.26s WALL (       1 calls)
     forces       :      0.17s CPU      0.19s WALL (       1 calls)
     stress       :      0.28s CPU      0.31s WALL (       1 calls)

     Called by init_run:
     wfcinit      :      0.30s CPU      0.88s WALL (       1 calls)
     wfcinit:atom :      0.00s CPU      0.00s WALL (      65 calls)
     wfcinit:wfcr :      0.28s CPU      0.85s WALL (      65 calls)
     potinit      :      0.07s CPU      0.10s WALL (       1 calls)
     hinit0       :      0.10s CPU      0.17s WALL (       1 calls)

     Called by electrons:
     c_bands      :      4.92s CPU      5.27s WALL (       7 calls)
     sum_band     :      0.66s CPU      0.70s WALL (       7 calls)
     v_of_rho     :      0.20s CPU      0.23s WALL (       8 calls)
     v_h          :      0.00s CPU      0.00s WALL (       8 calls)
     v_xc         :      0.25s CPU      0.28s WALL (      10 calls)
     newd         :      0.05s CPU      0.06s WALL (       8 calls)
     mix_rho      :      0.01s CPU      0.02s WALL (       7 calls)

     Called by c_bands:
     init_us_2    :      0.08s CPU      0.09s WALL (    1105 calls)
     cegterg      :      4.52s CPU      4.75s WALL (     455 calls)

     Called by sum_band:
     sum_band:bec :      0.01s CPU      0.01s WALL (     455 calls)
     addusdens    :      0.05s CPU      0.06s WALL (       7 calls)

     Called by *egterg:
     h_psi        :      2.64s CPU      2.74s WALL (    1670 calls)
     s_psi        :      0.10s CPU      0.10s WALL (    1670 calls)
     g_psi        :      0.01s CPU      0.01s WALL (    1150 calls)
     cdiaghg      :      1.32s CPU      1.94s WALL (    1605 calls)
     cegterg:over :      0.35s CPU      0.39s WALL (    1150 calls)
     cegterg:upda :      0.17s CPU      0.17s WALL (    1150 calls)
     cegterg:last :      0.09s CPU      0.09s WALL (     455 calls)
     cdiaghg:chol :      0.08s CPU      0.12s WALL (    1605 calls)
     cdiaghg:inve :      0.02s CPU      0.07s WALL (    1605 calls)
     cdiaghg:para :      0.13s CPU      0.14s WALL (    3210 calls)

     Called by h_psi:
     h_psi:pot    :      2.63s CPU      2.74s WALL (    1670 calls)
     h_psi:calbec :      0.18s CPU      0.19s WALL (    1670 calls)
     vloc_psi     :      2.35s CPU      2.44s WALL (    1670 calls)
     add_vuspsi   :      0.10s CPU      0.11s WALL (    1670 calls)

     General routines
     calbec       :      0.28s CPU      0.29s WALL (    2450 calls)
     fft          :      0.03s CPU      0.05s WALL (     127 calls)
     ffts         :      0.00s CPU      0.00s WALL (      15 calls)
     fftw         :      2.68s CPU      2.77s WALL (   60505 calls)
     interpolate  :      0.00s CPU      0.00s WALL (       8 calls)
 
     Parallel routines
     fft_scatt_xy :      0.38s CPU      0.39s WALL (   60647 calls)
     fft_scatt_yz :      1.47s CPU      1.53s WALL (   60647 calls)
 
     PWSCF        :      7.50s CPU      9.44s WALL

 
   This run was terminated on:  23:26:37  15Jun2022            

=------------------------------------------------------------------------------=
   JOB DONE.
=------------------------------------------------------------------------------=
