
     Program PWSCF v.6.4.1 starts on 16Jun2022 at 20:12:44 

     This program is part of the open-source Quantum ESPRESSO suite
     for quantum simulation of materials; please cite
         "P. Giannozzi et al., J. Phys.:Condens. Matter 21 395502 (2009);
         "P. Giannozzi et al., J. Phys.:Condens. Matter 29 465901 (2017);
          URL http://www.quantum-espresso.org", 
     in publications or presentations arising from this work. More details at
     http://www.quantum-espresso.org/quote

     Parallel version (MPI), running on    64 processors

     MPI processes distributed on     1 nodes
     K-points division:     npool     =       4
     R & G space division:  proc/nbgrp/npool/nimage =      16
     Waiting for input...
     Reading input from standard input
Warning: card &IONS ignored
Warning: card   UPSCALE           = 100.D0, ignored
Warning: card / ignored
Warning: card &CELL ignored
Warning: card   CELL_DYNAMICS     = 'BFGS' ignored
Warning: card   PRESS_CONV_THR    = 0.5D0 ignored
Warning: card   CELL_DOFREE = 'ALL' ignored
Warning: card / ignored

     Current dimensions of program PWSCF are:
     Max number of different atomic species (ntypx) = 10
     Max number of k-points (npk) =  40000
     Max angular momentum in pseudopotentials (lmaxx) =  3

     Subspace diagonalization in iterative solution of the eigenvalue problem:
     one sub-group per band group will be used
     scalapack distributed-memory algorithm (size of sub-group:  2*  2 procs)

 
     Parallelization info
     --------------------
     sticks:   dense  smooth     PW     G-vecs:    dense   smooth      PW
     Min         103      55     17                 4845     1883     329
     Max         104      56     18                 4852     1886     332
     Sum        1663     889    283                77583    30159    5291
 


     bravais-lattice index     =            0
     lattice parameter (alat)  =       6.3538  a.u.
     unit-cell volume          =     312.5778 (a.u.)^3
     number of atoms/cell      =            4
     number of atomic types    =            3
     number of electrons       =        42.00
     number of Kohn-Sham states=           21
     kinetic-energy cutoff     =      80.0000  Ry
     charge density cutoff     =     600.0000  Ry
     convergence threshold     =      1.0E-06
     mixing beta               =       0.5000
     number of iterations used =            8  plain     mixing
     Exchange-correlation      = SLA  PW   PSX  PSC ( 1  4 10  8 0 0)
     Using LIBXC version       =    4   3   4

     celldm(1)=   6.353842  celldm(2)=   0.000000  celldm(3)=   0.000000
     celldm(4)=   0.000000  celldm(5)=   0.000000  celldm(6)=   0.000000

     crystal axes: (cart. coord. in units of alat)
               a(1) = (   1.000000   0.000000   0.000000 )  
               a(2) = (  -0.500000   0.866025  -0.000000 )  
               a(3) = (   0.000000  -0.000000   1.407078 )  

     reciprocal axes: (cart. coord. in units 2 pi/alat)
               b(1) = (  1.000000  0.577350 -0.000000 )  
               b(2) = ( -0.000000  1.154701  0.000000 )  
               b(3) = ( -0.000000  0.000000  0.710693 )  


     PseudoPot. # 1 for Mg read from file:
     ./GBRV_PBEsol/mg_pbesol_v1.4.uspp.F.UPF
     MD5 check sum: 4059f37963cf5867752dbf5ab2400678
     Pseudo is Ultrasoft, Zval = 10.0
     Generated by new atomic code, or converted to UPF format
     Using radial grid of  821 points,  7 beta functions with: 
                l(1) =   0
                l(2) =   0
                l(3) =   0
                l(4) =   1
                l(5) =   1
                l(6) =   2
                l(7) =   2
     Q(r) pseudized with  8 coefficients,  rinner =    1.200   1.200   1.200
                                                       1.200   1.200

     PseudoPot. # 2 for Zn read from file:
     ./GBRV_PBEsol/zn_pbesol_v1.uspp.F.UPF
     MD5 check sum: 7d8615e52efe7c1e2b1899de8658bae2
     Pseudo is Ultrasoft, Zval = 20.0
     Generated by new atomic code, or converted to UPF format
     Using radial grid of  943 points,  6 beta functions with: 
                l(1) =   0
                l(2) =   0
                l(3) =   1
                l(4) =   1
                l(5) =   2
                l(6) =   2
     Q(r) pseudized with  8 coefficients,  rinner =    1.100   1.100   1.100
                                                       1.100   1.100

     PseudoPot. # 3 for O  read from file:
     ./GBRV_PBEsol/o_pbesol_v1.2.uspp.F.UPF
     MD5 check sum: 501638753501ef6325af9037351f7734
     Pseudo is Ultrasoft + core correction, Zval =  6.0
     Generated by new atomic code, or converted to UPF format
     Using radial grid of  737 points,  5 beta functions with: 
                l(1) =   0
                l(2) =   0
                l(3) =   1
                l(4) =   1
                l(5) =   2
     Q(r) pseudized with  8 coefficients,  rinner =    0.900   0.900   0.900
                                                       0.900   0.900

     atomic species   valence    mass     pseudopotential
        Mg            10.00    24.30500     Mg( 1.00)
        Zn            20.00    65.38000     Zn( 1.00)
        O              6.00    15.99900     O ( 1.00)

     No symmetry found


                                    s                        frac. trans.

      isym =  1     identity                                     

 cryst.   s( 1) = (     1          0          0      )
                  (     0          1          0      )
                  (     0          0          1      )

 cart.    s( 1) = (  1.0000000  0.0000000 -0.0000000 )
                  (  0.0000000  1.0000000  0.0000000 )
                  (  0.0000000  0.0000000  1.0000000 )


   Cartesian axes

     site n.     atom                  positions (alat units)
         1           O   tau(   1) = (   0.5000002   0.2886755   0.0103362  )
         2           O   tau(   2) = (   0.0000002   0.5773492   0.7138750  )
         3           Zn  tau(   3) = (   0.5000001   0.2886746   0.8076544  )
         4           Mg  tau(   4) = (   0.0000001   0.5773508   1.5158150  )

   Crystallographic axes

     site n.     atom                  positions (cryst. coord.)
         1           O   tau(   1) = (  0.6666670  0.3333337  0.0073459  )
         2           O   tau(   2) = (  0.3333329  0.6666657  0.5073458  )
         3           Zn  tau(   3) = (  0.6666664  0.3333329  0.5739939  )
         4           Mg  tau(   4) = (  0.3333336  0.6666677  1.0772785  )

     number of k points=   260
                       cart. coord. in units 2pi/alat
        k(    1) = (   0.0000000   0.0000000   0.0000000), wk =   0.0039062
        k(    2) = (  -0.0000000   0.0000000   0.0888366), wk =   0.0078125
        k(    3) = (  -0.0000000   0.0000000   0.1776731), wk =   0.0078125
        k(    4) = (  -0.0000001   0.0000001   0.2665097), wk =   0.0078125
        k(    5) = (   0.0000001  -0.0000001  -0.3553463), wk =   0.0039062
        k(    6) = (  -0.0000000   0.1443376   0.0000000), wk =   0.0078125
        k(    7) = (  -0.0000000   0.1443376   0.0888366), wk =   0.0078125
        k(    8) = (  -0.0000001   0.1443376   0.1776732), wk =   0.0078125
        k(    9) = (  -0.0000001   0.1443376   0.2665097), wk =   0.0078125
        k(   10) = (   0.0000001   0.1443375  -0.3553462), wk =   0.0078125
        k(   11) = (   0.0000000   0.1443375  -0.2665097), wk =   0.0078125
        k(   12) = (   0.0000000   0.1443375  -0.1776731), wk =   0.0078125
        k(   13) = (   0.0000000   0.1443376  -0.0888365), wk =   0.0078125
        k(   14) = (  -0.0000000   0.2886752   0.0000001), wk =   0.0078125
        k(   15) = (  -0.0000000   0.2886752   0.0888366), wk =   0.0078125
        k(   16) = (  -0.0000001   0.2886752   0.1776732), wk =   0.0078125
        k(   17) = (  -0.0000001   0.2886752   0.2665098), wk =   0.0078125
        k(   18) = (   0.0000001   0.2886751  -0.3553462), wk =   0.0078125
        k(   19) = (   0.0000000   0.2886751  -0.2665096), wk =   0.0078125
        k(   20) = (   0.0000000   0.2886751  -0.1776731), wk =   0.0078125
        k(   21) = (  -0.0000000   0.2886751  -0.0888365), wk =   0.0078125
        k(   22) = (  -0.0000000   0.4330127   0.0000001), wk =   0.0078125
        k(   23) = (  -0.0000001   0.4330128   0.0888367), wk =   0.0078125
        k(   24) = (  -0.0000001   0.4330128   0.1776732), wk =   0.0078125
        k(   25) = (  -0.0000001   0.4330128   0.2665098), wk =   0.0078125
        k(   26) = (   0.0000000   0.4330126  -0.3553462), wk =   0.0078125
        k(   27) = (   0.0000000   0.4330127  -0.2665096), wk =   0.0078125
        k(   28) = (   0.0000000   0.4330127  -0.1776730), wk =   0.0078125
        k(   29) = (  -0.0000000   0.4330127  -0.0888365), wk =   0.0078125
        k(   30) = (   0.0000001  -0.5773503  -0.0000001), wk =   0.0039062
        k(   31) = (   0.0000000  -0.5773503   0.0888364), wk =   0.0078125
        k(   32) = (   0.0000000  -0.5773503   0.1776730), wk =   0.0078125
        k(   33) = (  -0.0000000  -0.5773502   0.2665096), wk =   0.0078125
        k(   34) = (   0.0000001  -0.5773504  -0.3553464), wk =   0.0039062
        k(   35) = (   0.1250000   0.0721688  -0.0000000), wk =   0.0078125
        k(   36) = (   0.1250000   0.0721688   0.0888366), wk =   0.0078125
        k(   37) = (   0.1250000   0.0721688   0.1776731), wk =   0.0078125
        k(   38) = (   0.1249999   0.0721688   0.2665097), wk =   0.0078125
        k(   39) = (   0.1250001   0.0721687  -0.3553463), wk =   0.0078125
        k(   40) = (   0.1250001   0.0721687  -0.2665097), wk =   0.0078125
        k(   41) = (   0.1250000   0.0721687  -0.1776731), wk =   0.0078125
        k(   42) = (   0.1250000   0.0721688  -0.0888366), wk =   0.0078125
        k(   43) = (   0.1250000   0.2165064   0.0000000), wk =   0.0078125
        k(   44) = (   0.1250000   0.2165064   0.0888366), wk =   0.0078125
        k(   45) = (   0.1249999   0.2165064   0.1776732), wk =   0.0078125
        k(   46) = (   0.1249999   0.2165064   0.2665097), wk =   0.0078125
        k(   47) = (   0.1250001   0.2165063  -0.3553462), wk =   0.0078125
        k(   48) = (   0.1250000   0.2165063  -0.2665097), wk =   0.0078125
        k(   49) = (   0.1250000   0.2165063  -0.1776731), wk =   0.0078125
        k(   50) = (   0.1250000   0.2165063  -0.0888365), wk =   0.0078125
        k(   51) = (   0.1250000   0.3608439   0.0000001), wk =   0.0078125
        k(   52) = (   0.1249999   0.3608440   0.0888366), wk =   0.0078125
        k(   53) = (   0.1249999   0.3608440   0.1776732), wk =   0.0078125
        k(   54) = (   0.1249999   0.3608440   0.2665098), wk =   0.0078125
        k(   55) = (   0.1250000   0.3608438  -0.3553462), wk =   0.0078125
        k(   56) = (   0.1250000   0.3608439  -0.2665096), wk =   0.0078125
        k(   57) = (   0.1250000   0.3608439  -0.1776731), wk =   0.0078125
        k(   58) = (   0.1250000   0.3608439  -0.0888365), wk =   0.0078125
        k(   59) = (   0.1250000   0.5051815   0.0000001), wk =   0.0078125
        k(   60) = (   0.1249999   0.5051815   0.0888367), wk =   0.0078125
        k(   61) = (   0.1249999   0.5051816   0.1776732), wk =   0.0078125
        k(   62) = (   0.1249999   0.5051816   0.2665098), wk =   0.0078125
        k(   63) = (   0.1250000   0.5051814  -0.3553462), wk =   0.0078125
        k(   64) = (   0.1250000   0.5051814  -0.2665096), wk =   0.0078125
        k(   65) = (   0.1250000   0.5051815  -0.1776730), wk =   0.0078125
        k(   66) = (   0.1250000   0.5051815  -0.0888365), wk =   0.0078125
        k(   67) = (   0.1250000  -0.5051815  -0.0000001), wk =   0.0078125
        k(   68) = (   0.1250000  -0.5051815   0.0888364), wk =   0.0078125
        k(   69) = (   0.1250000  -0.5051815   0.1776730), wk =   0.0078125
        k(   70) = (   0.1250000  -0.5051815   0.2665096), wk =   0.0078125
        k(   71) = (   0.1250001  -0.5051816  -0.3553464), wk =   0.0078125
        k(   72) = (   0.1250001  -0.5051816  -0.2665098), wk =   0.0078125
        k(   73) = (   0.1250001  -0.5051816  -0.1776733), wk =   0.0078125
        k(   74) = (   0.1250001  -0.5051816  -0.0888367), wk =   0.0078125
        k(   75) = (   0.1250000  -0.3608440  -0.0000001), wk =   0.0078125
        k(   76) = (   0.1250000  -0.3608439   0.0888365), wk =   0.0078125
        k(   77) = (   0.1250000  -0.3608439   0.1776730), wk =   0.0078125
        k(   78) = (   0.1250000  -0.3608439   0.2665096), wk =   0.0078125
        k(   79) = (   0.1250001  -0.3608440  -0.3553464), wk =   0.0078125
        k(   80) = (   0.1250001  -0.3608440  -0.2665098), wk =   0.0078125
        k(   81) = (   0.1250001  -0.3608440  -0.1776732), wk =   0.0078125
        k(   82) = (   0.1250001  -0.3608440  -0.0888367), wk =   0.0078125
        k(   83) = (   0.1250000  -0.2165064  -0.0000001), wk =   0.0078125
        k(   84) = (   0.1250000  -0.2165064   0.0888365), wk =   0.0078125
        k(   85) = (   0.1250000  -0.2165063   0.1776731), wk =   0.0078125
        k(   86) = (   0.1250000  -0.2165063   0.2665096), wk =   0.0078125
        k(   87) = (   0.1250001  -0.2165065  -0.3553463), wk =   0.0078125
        k(   88) = (   0.1250001  -0.2165064  -0.2665098), wk =   0.0078125
        k(   89) = (   0.1250001  -0.2165064  -0.1776732), wk =   0.0078125
        k(   90) = (   0.1250000  -0.2165064  -0.0888366), wk =   0.0078125
        k(   91) = (   0.1250000  -0.0721688  -0.0000000), wk =   0.0078125
        k(   92) = (   0.1250000  -0.0721688   0.0888365), wk =   0.0078125
        k(   93) = (   0.1250000  -0.0721688   0.1776731), wk =   0.0078125
        k(   94) = (   0.1249999  -0.0721687   0.2665097), wk =   0.0078125
        k(   95) = (   0.1250001  -0.0721689  -0.3553463), wk =   0.0078125
        k(   96) = (   0.1250001  -0.0721689  -0.2665097), wk =   0.0078125
        k(   97) = (   0.1250000  -0.0721688  -0.1776732), wk =   0.0078125
        k(   98) = (   0.1250000  -0.0721688  -0.0888366), wk =   0.0078125
        k(   99) = (   0.2500000   0.1443376  -0.0000000), wk =   0.0078125
        k(  100) = (   0.2500000   0.1443376   0.0888366), wk =   0.0078125
        k(  101) = (   0.2499999   0.1443376   0.1776731), wk =   0.0078125
        k(  102) = (   0.2499999   0.1443376   0.2665097), wk =   0.0078125
        k(  103) = (   0.2500001   0.1443375  -0.3553463), wk =   0.0078125
        k(  104) = (   0.2500000   0.1443375  -0.2665097), wk =   0.0078125
        k(  105) = (   0.2500000   0.1443375  -0.1776731), wk =   0.0078125
        k(  106) = (   0.2500000   0.1443375  -0.0888366), wk =   0.0078125
        k(  107) = (   0.2500000   0.2886751   0.0000000), wk =   0.0078125
        k(  108) = (   0.2500000   0.2886752   0.0888366), wk =   0.0078125
        k(  109) = (   0.2499999   0.2886752   0.1776732), wk =   0.0078125
        k(  110) = (   0.2499999   0.2886752   0.2665097), wk =   0.0078125
        k(  111) = (   0.2500001   0.2886750  -0.3553462), wk =   0.0078125
        k(  112) = (   0.2500000   0.2886751  -0.2665097), wk =   0.0078125
        k(  113) = (   0.2500000   0.2886751  -0.1776731), wk =   0.0078125
        k(  114) = (   0.2500000   0.2886751  -0.0888365), wk =   0.0078125
        k(  115) = (   0.2500000   0.4330127   0.0000001), wk =   0.0078125
        k(  116) = (   0.2499999   0.4330127   0.0888366), wk =   0.0078125
        k(  117) = (   0.2499999   0.4330128   0.1776732), wk =   0.0078125
        k(  118) = (   0.2499999   0.4330128   0.2665098), wk =   0.0078125
        k(  119) = (   0.2500000   0.4330126  -0.3553462), wk =   0.0078125
        k(  120) = (   0.2500000   0.4330126  -0.2665096), wk =   0.0078125
        k(  121) = (   0.2500000   0.4330127  -0.1776731), wk =   0.0078125
        k(  122) = (   0.2500000   0.4330127  -0.0888365), wk =   0.0078125
        k(  123) = (   0.2499999   0.5773503   0.0000001), wk =   0.0078125
        k(  124) = (   0.2499999   0.5773503   0.0888367), wk =   0.0078125
        k(  125) = (   0.2499999   0.5773503   0.1776732), wk =   0.0078125
        k(  126) = (   0.2499999   0.5773504   0.2665098), wk =   0.0078125
        k(  127) = (   0.2500000   0.5773502  -0.3553462), wk =   0.0078125
        k(  128) = (   0.2500000   0.5773502  -0.2665096), wk =   0.0078125
        k(  129) = (   0.2500000   0.5773502  -0.1776730), wk =   0.0078125
        k(  130) = (   0.2500000   0.5773503  -0.0888365), wk =   0.0078125
        k(  131) = (   0.2500000  -0.4330128  -0.0000001), wk =   0.0078125
        k(  132) = (   0.2500000  -0.4330127   0.0888364), wk =   0.0078125
        k(  133) = (   0.2500000  -0.4330127   0.1776730), wk =   0.0078125
        k(  134) = (   0.2500000  -0.4330127   0.2665096), wk =   0.0078125
        k(  135) = (   0.2500001  -0.4330128  -0.3553464), wk =   0.0078125
        k(  136) = (   0.2500001  -0.4330128  -0.2665098), wk =   0.0078125
        k(  137) = (   0.2500001  -0.4330128  -0.1776733), wk =   0.0078125
        k(  138) = (   0.2500001  -0.4330128  -0.0888367), wk =   0.0078125
        k(  139) = (   0.2500000  -0.2886752  -0.0000001), wk =   0.0078125
        k(  140) = (   0.2500000  -0.2886752   0.0888365), wk =   0.0078125
        k(  141) = (   0.2500000  -0.2886751   0.1776730), wk =   0.0078125
        k(  142) = (   0.2500000  -0.2886751   0.2665096), wk =   0.0078125
        k(  143) = (   0.2500001  -0.2886753  -0.3553464), wk =   0.0078125
        k(  144) = (   0.2500001  -0.2886752  -0.2665098), wk =   0.0078125
        k(  145) = (   0.2500001  -0.2886752  -0.1776732), wk =   0.0078125
        k(  146) = (   0.2500000  -0.2886752  -0.0888367), wk =   0.0078125
        k(  147) = (   0.2500000  -0.1443376  -0.0000001), wk =   0.0078125
        k(  148) = (   0.2500000  -0.1443376   0.0888365), wk =   0.0078125
        k(  149) = (   0.2500000  -0.1443376   0.1776731), wk =   0.0078125
        k(  150) = (   0.2500000  -0.1443375   0.2665096), wk =   0.0078125
        k(  151) = (   0.2500001  -0.1443377  -0.3553463), wk =   0.0078125
        k(  152) = (   0.2500001  -0.1443377  -0.2665098), wk =   0.0078125
        k(  153) = (   0.2500001  -0.1443376  -0.1776732), wk =   0.0078125
        k(  154) = (   0.2500000  -0.1443376  -0.0888366), wk =   0.0078125
        k(  155) = (   0.2500000  -0.0000000  -0.0000000), wk =   0.0078125
        k(  156) = (   0.2500000  -0.0000000   0.0888365), wk =   0.0078125
        k(  157) = (   0.2500000   0.0000000   0.1776731), wk =   0.0078125
        k(  158) = (   0.2499999   0.0000000   0.2665097), wk =   0.0078125
        k(  159) = (   0.2500001  -0.0000001  -0.3553463), wk =   0.0078125
        k(  160) = (   0.2500001  -0.0000001  -0.2665097), wk =   0.0078125
        k(  161) = (   0.2500000  -0.0000001  -0.1776732), wk =   0.0078125
        k(  162) = (   0.2500000  -0.0000000  -0.0888366), wk =   0.0078125
        k(  163) = (   0.3750000   0.2165063  -0.0000000), wk =   0.0078125
        k(  164) = (   0.3750000   0.2165064   0.0888366), wk =   0.0078125
        k(  165) = (   0.3749999   0.2165064   0.1776731), wk =   0.0078125
        k(  166) = (   0.3749999   0.2165064   0.2665097), wk =   0.0078125
        k(  167) = (   0.3750001   0.2165062  -0.3553463), wk =   0.0078125
        k(  168) = (   0.3750000   0.2165063  -0.2665097), wk =   0.0078125
        k(  169) = (   0.3750000   0.2165063  -0.1776731), wk =   0.0078125
        k(  170) = (   0.3750000   0.2165063  -0.0888366), wk =   0.0078125
        k(  171) = (   0.3750000   0.3608439   0.0000000), wk =   0.0078125
        k(  172) = (   0.3749999   0.3608439   0.0888366), wk =   0.0078125
        k(  173) = (   0.3749999   0.3608440   0.1776732), wk =   0.0078125
        k(  174) = (   0.3749999   0.3608440   0.2665097), wk =   0.0078125
        k(  175) = (   0.3750000   0.3608438  -0.3553462), wk =   0.0078125
        k(  176) = (   0.3750000   0.3608438  -0.2665097), wk =   0.0078125
        k(  177) = (   0.3750000   0.3608439  -0.1776731), wk =   0.0078125
        k(  178) = (   0.3750000   0.3608439  -0.0888365), wk =   0.0078125
        k(  179) = (   0.3750000   0.5051815   0.0000001), wk =   0.0078125
        k(  180) = (   0.3749999   0.5051815   0.0888366), wk =   0.0078125
        k(  181) = (   0.3749999   0.5051815   0.1776732), wk =   0.0078125
        k(  182) = (   0.3749999   0.5051816   0.2665098), wk =   0.0078125
        k(  183) = (   0.3750000   0.5051814  -0.3553462), wk =   0.0078125
        k(  184) = (   0.3750000   0.5051814  -0.2665096), wk =   0.0078125
        k(  185) = (   0.3750000   0.5051814  -0.1776731), wk =   0.0078125
        k(  186) = (   0.3750000   0.5051815  -0.0888365), wk =   0.0078125
        k(  187) = (   0.3749999   0.6495191   0.0000001), wk =   0.0078125
        k(  188) = (   0.3749999   0.6495191   0.0888367), wk =   0.0078125
        k(  189) = (   0.3749999   0.6495191   0.1776732), wk =   0.0078125
        k(  190) = (   0.3749999   0.6495191   0.2665098), wk =   0.0078125
        k(  191) = (   0.3750000   0.6495190  -0.3553462), wk =   0.0078125
        k(  192) = (   0.3750000   0.6495190  -0.2665096), wk =   0.0078125
        k(  193) = (   0.3750000   0.6495190  -0.1776730), wk =   0.0078125
        k(  194) = (   0.3750000   0.6495190  -0.0888365), wk =   0.0078125
        k(  195) = (   0.3750000  -0.3608440  -0.0000001), wk =   0.0078125
        k(  196) = (   0.3750000  -0.3608440   0.0888364), wk =   0.0078125
        k(  197) = (   0.3750000  -0.3608439   0.1776730), wk =   0.0078125
        k(  198) = (   0.3750000  -0.3608439   0.2665096), wk =   0.0078125
        k(  199) = (   0.3750001  -0.3608441  -0.3553464), wk =   0.0078125
        k(  200) = (   0.3750001  -0.3608440  -0.2665098), wk =   0.0078125
        k(  201) = (   0.3750001  -0.3608440  -0.1776733), wk =   0.0078125
        k(  202) = (   0.3750001  -0.3608440  -0.0888367), wk =   0.0078125
        k(  203) = (   0.3750000  -0.2165064  -0.0000001), wk =   0.0078125
        k(  204) = (   0.3750000  -0.2165064   0.0888365), wk =   0.0078125
        k(  205) = (   0.3750000  -0.2165064   0.1776730), wk =   0.0078125
        k(  206) = (   0.3750000  -0.2165063   0.2665096), wk =   0.0078125
        k(  207) = (   0.3750001  -0.2165065  -0.3553464), wk =   0.0078125
        k(  208) = (   0.3750001  -0.2165065  -0.2665098), wk =   0.0078125
        k(  209) = (   0.3750001  -0.2165064  -0.1776732), wk =   0.0078125
        k(  210) = (   0.3750000  -0.2165064  -0.0888367), wk =   0.0078125
        k(  211) = (   0.3750000  -0.0721688  -0.0000001), wk =   0.0078125
        k(  212) = (   0.3750000  -0.0721688   0.0888365), wk =   0.0078125
        k(  213) = (   0.3750000  -0.0721688   0.1776731), wk =   0.0078125
        k(  214) = (   0.3749999  -0.0721688   0.2665096), wk =   0.0078125
        k(  215) = (   0.3750001  -0.0721689  -0.3553463), wk =   0.0078125
        k(  216) = (   0.3750001  -0.0721689  -0.2665098), wk =   0.0078125
        k(  217) = (   0.3750000  -0.0721689  -0.1776732), wk =   0.0078125
        k(  218) = (   0.3750000  -0.0721688  -0.0888366), wk =   0.0078125
        k(  219) = (   0.3750000   0.0721688  -0.0000000), wk =   0.0078125
        k(  220) = (   0.3750000   0.0721688   0.0888365), wk =   0.0078125
        k(  221) = (   0.3750000   0.0721688   0.1776731), wk =   0.0078125
        k(  222) = (   0.3749999   0.0721688   0.2665097), wk =   0.0078125
        k(  223) = (   0.3750001   0.0721687  -0.3553463), wk =   0.0078125
        k(  224) = (   0.3750001   0.0721687  -0.2665097), wk =   0.0078125
        k(  225) = (   0.3750000   0.0721687  -0.1776732), wk =   0.0078125
        k(  226) = (   0.3750000   0.0721687  -0.0888366), wk =   0.0078125
        k(  227) = (  -0.5000000  -0.2886751   0.0000000), wk =   0.0039062
        k(  228) = (  -0.5000000  -0.2886751   0.0888366), wk =   0.0078125
        k(  229) = (  -0.5000000  -0.2886751   0.1776731), wk =   0.0078125
        k(  230) = (  -0.5000000  -0.2886750   0.2665097), wk =   0.0078125
        k(  231) = (  -0.4999999  -0.2886752  -0.3553463), wk =   0.0039062
        k(  232) = (  -0.5000000  -0.1443375   0.0000000), wk =   0.0078125
        k(  233) = (  -0.5000000  -0.1443375   0.0888366), wk =   0.0078125
        k(  234) = (  -0.5000000  -0.1443375   0.1776732), wk =   0.0078125
        k(  235) = (  -0.5000000  -0.1443375   0.2665097), wk =   0.0078125
        k(  236) = (  -0.4999999  -0.1443376  -0.3553462), wk =   0.0078125
        k(  237) = (  -0.4999999  -0.1443376  -0.2665097), wk =   0.0078125
        k(  238) = (  -0.4999999  -0.1443376  -0.1776731), wk =   0.0078125
        k(  239) = (  -0.5000000  -0.1443376  -0.0888365), wk =   0.0078125
        k(  240) = (  -0.5000000   0.0000000   0.0000001), wk =   0.0078125
        k(  241) = (  -0.5000000   0.0000001   0.0888366), wk =   0.0078125
        k(  242) = (  -0.5000000   0.0000001   0.1776732), wk =   0.0078125
        k(  243) = (  -0.5000001   0.0000001   0.2665098), wk =   0.0078125
        k(  244) = (  -0.4999999  -0.0000000  -0.3553462), wk =   0.0078125
        k(  245) = (  -0.4999999  -0.0000000  -0.2665096), wk =   0.0078125
        k(  246) = (  -0.5000000   0.0000000  -0.1776731), wk =   0.0078125
        k(  247) = (  -0.5000000   0.0000000  -0.0888365), wk =   0.0078125
        k(  248) = (  -0.5000000   0.1443376   0.0000001), wk =   0.0078125
        k(  249) = (  -0.5000000   0.1443376   0.0888367), wk =   0.0078125
        k(  250) = (  -0.5000001   0.1443377   0.1776732), wk =   0.0078125
        k(  251) = (  -0.5000001   0.1443377   0.2665098), wk =   0.0078125
        k(  252) = (  -0.4999999   0.1443375  -0.3553462), wk =   0.0078125
        k(  253) = (  -0.5000000   0.1443376  -0.2665096), wk =   0.0078125
        k(  254) = (  -0.5000000   0.1443376  -0.1776730), wk =   0.0078125
        k(  255) = (  -0.5000000   0.1443376  -0.0888365), wk =   0.0078125
        k(  256) = (  -0.4999999  -0.8660254  -0.0000001), wk =   0.0039062
        k(  257) = (  -0.4999999  -0.8660254   0.0888364), wk =   0.0078125
        k(  258) = (  -0.5000000  -0.8660254   0.1776730), wk =   0.0078125
        k(  259) = (  -0.5000000  -0.8660254   0.2665096), wk =   0.0078125
        k(  260) = (  -0.4999998  -0.8660255  -0.3553464), wk =   0.0039062

                       cryst. coord.
        k(    1) = (   0.0000000   0.0000000   0.0000000), wk =   0.0039062
        k(    2) = (   0.0000000   0.0000000   0.1250000), wk =   0.0078125
        k(    3) = (   0.0000000   0.0000000   0.2500000), wk =   0.0078125
        k(    4) = (   0.0000000   0.0000000   0.3750000), wk =   0.0078125
        k(    5) = (  -0.0000000  -0.0000000  -0.5000000), wk =   0.0039062
        k(    6) = (   0.0000000   0.1250000   0.0000000), wk =   0.0078125
        k(    7) = (   0.0000000   0.1250000   0.1250000), wk =   0.0078125
        k(    8) = (   0.0000000   0.1250000   0.2500000), wk =   0.0078125
        k(    9) = (  -0.0000000   0.1250000   0.3750000), wk =   0.0078125
        k(   10) = (  -0.0000000   0.1250000  -0.5000000), wk =   0.0078125
        k(   11) = (  -0.0000000   0.1250000  -0.3750000), wk =   0.0078125
        k(   12) = (  -0.0000000   0.1250000  -0.2500000), wk =   0.0078125
        k(   13) = (  -0.0000000   0.1250000  -0.1250000), wk =   0.0078125
        k(   14) = (   0.0000000   0.2500000   0.0000000), wk =   0.0078125
        k(   15) = (   0.0000000   0.2500000   0.1250000), wk =   0.0078125
        k(   16) = (   0.0000000   0.2500000   0.2500000), wk =   0.0078125
        k(   17) = (   0.0000000   0.2500000   0.3750000), wk =   0.0078125
        k(   18) = (  -0.0000000   0.2500000  -0.5000000), wk =   0.0078125
        k(   19) = (  -0.0000000   0.2500000  -0.3750000), wk =   0.0078125
        k(   20) = (  -0.0000000   0.2500000  -0.2500000), wk =   0.0078125
        k(   21) = (  -0.0000000   0.2500000  -0.1250000), wk =   0.0078125
        k(   22) = (   0.0000000   0.3750000   0.0000000), wk =   0.0078125
        k(   23) = (   0.0000000   0.3750000   0.1250000), wk =   0.0078125
        k(   24) = (   0.0000000   0.3750000   0.2500000), wk =   0.0078125
        k(   25) = (  -0.0000000   0.3750000   0.3750000), wk =   0.0078125
        k(   26) = (  -0.0000000   0.3750000  -0.5000000), wk =   0.0078125
        k(   27) = (  -0.0000000   0.3750000  -0.3750000), wk =   0.0078125
        k(   28) = (  -0.0000000   0.3750000  -0.2500000), wk =   0.0078125
        k(   29) = (  -0.0000000   0.3750000  -0.1250000), wk =   0.0078125
        k(   30) = (  -0.0000000  -0.5000000  -0.0000000), wk =   0.0039062
        k(   31) = (   0.0000000  -0.5000000   0.1250000), wk =   0.0078125
        k(   32) = (   0.0000000  -0.5000000   0.2500000), wk =   0.0078125
        k(   33) = (   0.0000000  -0.5000000   0.3750000), wk =   0.0078125
        k(   34) = (  -0.0000000  -0.5000000  -0.5000000), wk =   0.0039062
        k(   35) = (   0.1250000  -0.0000000   0.0000000), wk =   0.0078125
        k(   36) = (   0.1250000  -0.0000000   0.1250000), wk =   0.0078125
        k(   37) = (   0.1250000  -0.0000000   0.2500000), wk =   0.0078125
        k(   38) = (   0.1250000  -0.0000000   0.3750000), wk =   0.0078125
        k(   39) = (   0.1250000  -0.0000000  -0.5000000), wk =   0.0078125
        k(   40) = (   0.1250000  -0.0000000  -0.3750000), wk =   0.0078125
        k(   41) = (   0.1250000   0.0000000  -0.2500000), wk =   0.0078125
        k(   42) = (   0.1250000   0.0000000  -0.1250000), wk =   0.0078125
        k(   43) = (   0.1250000   0.1250000  -0.0000000), wk =   0.0078125
        k(   44) = (   0.1250000   0.1250000   0.1250000), wk =   0.0078125
        k(   45) = (   0.1250000   0.1250000   0.2500000), wk =   0.0078125
        k(   46) = (   0.1250000   0.1250000   0.3750000), wk =   0.0078125
        k(   47) = (   0.1250000   0.1250000  -0.5000000), wk =   0.0078125
        k(   48) = (   0.1250000   0.1250000  -0.3750000), wk =   0.0078125
        k(   49) = (   0.1250000   0.1250000  -0.2500000), wk =   0.0078125
        k(   50) = (   0.1250000   0.1250000  -0.1250000), wk =   0.0078125
        k(   51) = (   0.1250000   0.2500000   0.0000000), wk =   0.0078125
        k(   52) = (   0.1250000   0.2500000   0.1250000), wk =   0.0078125
        k(   53) = (   0.1250000   0.2500000   0.2500000), wk =   0.0078125
        k(   54) = (   0.1250000   0.2500000   0.3750000), wk =   0.0078125
        k(   55) = (   0.1250000   0.2500000  -0.5000000), wk =   0.0078125
        k(   56) = (   0.1250000   0.2500000  -0.3750000), wk =   0.0078125
        k(   57) = (   0.1250000   0.2500000  -0.2500000), wk =   0.0078125
        k(   58) = (   0.1250000   0.2500000  -0.1250000), wk =   0.0078125
        k(   59) = (   0.1250000   0.3750000   0.0000000), wk =   0.0078125
        k(   60) = (   0.1250000   0.3750000   0.1250000), wk =   0.0078125
        k(   61) = (   0.1250000   0.3750000   0.2500000), wk =   0.0078125
        k(   62) = (   0.1250000   0.3750000   0.3750000), wk =   0.0078125
        k(   63) = (   0.1250000   0.3750000  -0.5000000), wk =   0.0078125
        k(   64) = (   0.1250000   0.3750000  -0.3750000), wk =   0.0078125
        k(   65) = (   0.1250000   0.3750000  -0.2500000), wk =   0.0078125
        k(   66) = (   0.1250000   0.3750000  -0.1250000), wk =   0.0078125
        k(   67) = (   0.1250000  -0.5000000  -0.0000000), wk =   0.0078125
        k(   68) = (   0.1250000  -0.5000000   0.1250000), wk =   0.0078125
        k(   69) = (   0.1250000  -0.5000000   0.2500000), wk =   0.0078125
        k(   70) = (   0.1250000  -0.5000000   0.3750000), wk =   0.0078125
        k(   71) = (   0.1250000  -0.5000000  -0.5000000), wk =   0.0078125
        k(   72) = (   0.1250000  -0.5000000  -0.3750000), wk =   0.0078125
        k(   73) = (   0.1250000  -0.5000000  -0.2500000), wk =   0.0078125
        k(   74) = (   0.1250000  -0.5000000  -0.1250000), wk =   0.0078125
        k(   75) = (   0.1250000  -0.3750000   0.0000000), wk =   0.0078125
        k(   76) = (   0.1250000  -0.3750000   0.1250000), wk =   0.0078125
        k(   77) = (   0.1250000  -0.3750000   0.2500000), wk =   0.0078125
        k(   78) = (   0.1250000  -0.3750000   0.3750000), wk =   0.0078125
        k(   79) = (   0.1250000  -0.3750000  -0.5000000), wk =   0.0078125
        k(   80) = (   0.1250000  -0.3750000  -0.3750000), wk =   0.0078125
        k(   81) = (   0.1250000  -0.3750000  -0.2500000), wk =   0.0078125
        k(   82) = (   0.1250000  -0.3750000  -0.1250000), wk =   0.0078125
        k(   83) = (   0.1250000  -0.2500000   0.0000000), wk =   0.0078125
        k(   84) = (   0.1250000  -0.2500000   0.1250000), wk =   0.0078125
        k(   85) = (   0.1250000  -0.2500000   0.2500000), wk =   0.0078125
        k(   86) = (   0.1250000  -0.2500000   0.3750000), wk =   0.0078125
        k(   87) = (   0.1250000  -0.2500000  -0.5000000), wk =   0.0078125
        k(   88) = (   0.1250000  -0.2500000  -0.3750000), wk =   0.0078125
        k(   89) = (   0.1250000  -0.2500000  -0.2500000), wk =   0.0078125
        k(   90) = (   0.1250000  -0.2500000  -0.1250000), wk =   0.0078125
        k(   91) = (   0.1250000  -0.1250000  -0.0000000), wk =   0.0078125
        k(   92) = (   0.1250000  -0.1250000   0.1250000), wk =   0.0078125
        k(   93) = (   0.1250000  -0.1250000   0.2500000), wk =   0.0078125
        k(   94) = (   0.1250000  -0.1250000   0.3750000), wk =   0.0078125
        k(   95) = (   0.1250000  -0.1250000  -0.5000000), wk =   0.0078125
        k(   96) = (   0.1250000  -0.1250000  -0.3750000), wk =   0.0078125
        k(   97) = (   0.1250000  -0.1250000  -0.2500000), wk =   0.0078125
        k(   98) = (   0.1250000  -0.1250000  -0.1250000), wk =   0.0078125
        k(   99) = (   0.2500000  -0.0000000   0.0000000), wk =   0.0078125
        k(  100) = (   0.2500000  -0.0000000   0.1250000), wk =   0.0078125
        k(  101) = (   0.2500000  -0.0000000   0.2500000), wk =   0.0078125
        k(  102) = (   0.2500000  -0.0000000   0.3750000), wk =   0.0078125
        k(  103) = (   0.2500000   0.0000000  -0.5000000), wk =   0.0078125
        k(  104) = (   0.2500000  -0.0000000  -0.3750000), wk =   0.0078125
        k(  105) = (   0.2500000   0.0000000  -0.2500000), wk =   0.0078125
        k(  106) = (   0.2500000  -0.0000000  -0.1250000), wk =   0.0078125
        k(  107) = (   0.2500000   0.1250000  -0.0000000), wk =   0.0078125
        k(  108) = (   0.2500000   0.1250000   0.1250000), wk =   0.0078125
        k(  109) = (   0.2500000   0.1250000   0.2500000), wk =   0.0078125
        k(  110) = (   0.2500000   0.1250000   0.3750000), wk =   0.0078125
        k(  111) = (   0.2500000   0.1250000  -0.5000000), wk =   0.0078125
        k(  112) = (   0.2500000   0.1250000  -0.3750000), wk =   0.0078125
        k(  113) = (   0.2500000   0.1250000  -0.2500000), wk =   0.0078125
        k(  114) = (   0.2500000   0.1250000  -0.1250000), wk =   0.0078125
        k(  115) = (   0.2500000   0.2500000  -0.0000000), wk =   0.0078125
        k(  116) = (   0.2500000   0.2500000   0.1250000), wk =   0.0078125
        k(  117) = (   0.2500000   0.2500000   0.2500000), wk =   0.0078125
        k(  118) = (   0.2500000   0.2500000   0.3750000), wk =   0.0078125
        k(  119) = (   0.2500000   0.2500000  -0.5000000), wk =   0.0078125
        k(  120) = (   0.2500000   0.2500000  -0.3750000), wk =   0.0078125
        k(  121) = (   0.2500000   0.2500000  -0.2500000), wk =   0.0078125
        k(  122) = (   0.2500000   0.2500000  -0.1250000), wk =   0.0078125
        k(  123) = (   0.2500000   0.3750000   0.0000000), wk =   0.0078125
        k(  124) = (   0.2500000   0.3750000   0.1250000), wk =   0.0078125
        k(  125) = (   0.2500000   0.3750000   0.2500000), wk =   0.0078125
        k(  126) = (   0.2500000   0.3750000   0.3750000), wk =   0.0078125
        k(  127) = (   0.2500000   0.3750000  -0.5000000), wk =   0.0078125
        k(  128) = (   0.2500000   0.3750000  -0.3750000), wk =   0.0078125
        k(  129) = (   0.2500000   0.3750000  -0.2500000), wk =   0.0078125
        k(  130) = (   0.2500000   0.3750000  -0.1250000), wk =   0.0078125
        k(  131) = (   0.2500000  -0.5000000   0.0000000), wk =   0.0078125
        k(  132) = (   0.2500000  -0.5000000   0.1250000), wk =   0.0078125
        k(  133) = (   0.2500000  -0.5000000   0.2500000), wk =   0.0078125
        k(  134) = (   0.2500000  -0.5000000   0.3750000), wk =   0.0078125
        k(  135) = (   0.2500000  -0.5000000  -0.5000000), wk =   0.0078125
        k(  136) = (   0.2500000  -0.5000000  -0.3750000), wk =   0.0078125
        k(  137) = (   0.2500000  -0.5000000  -0.2500000), wk =   0.0078125
        k(  138) = (   0.2500000  -0.5000000  -0.1250000), wk =   0.0078125
        k(  139) = (   0.2500000  -0.3750000   0.0000000), wk =   0.0078125
        k(  140) = (   0.2500000  -0.3750000   0.1250000), wk =   0.0078125
        k(  141) = (   0.2500000  -0.3750000   0.2500000), wk =   0.0078125
        k(  142) = (   0.2500000  -0.3750000   0.3750000), wk =   0.0078125
        k(  143) = (   0.2500000  -0.3750000  -0.5000000), wk =   0.0078125
        k(  144) = (   0.2500000  -0.3750000  -0.3750000), wk =   0.0078125
        k(  145) = (   0.2500000  -0.3750000  -0.2500000), wk =   0.0078125
        k(  146) = (   0.2500000  -0.3750000  -0.1250000), wk =   0.0078125
        k(  147) = (   0.2500000  -0.2500000  -0.0000000), wk =   0.0078125
        k(  148) = (   0.2500000  -0.2500000   0.1250000), wk =   0.0078125
        k(  149) = (   0.2500000  -0.2500000   0.2500000), wk =   0.0078125
        k(  150) = (   0.2500000  -0.2500000   0.3750000), wk =   0.0078125
        k(  151) = (   0.2500000  -0.2500000  -0.5000000), wk =   0.0078125
        k(  152) = (   0.2500000  -0.2500000  -0.3750000), wk =   0.0078125
        k(  153) = (   0.2500000  -0.2500000  -0.2500000), wk =   0.0078125
        k(  154) = (   0.2500000  -0.2500000  -0.1250000), wk =   0.0078125
        k(  155) = (   0.2500000  -0.1250000  -0.0000000), wk =   0.0078125
        k(  156) = (   0.2500000  -0.1250000   0.1250000), wk =   0.0078125
        k(  157) = (   0.2500000  -0.1250000   0.2500000), wk =   0.0078125
        k(  158) = (   0.2500000  -0.1250000   0.3750000), wk =   0.0078125
        k(  159) = (   0.2500000  -0.1250000  -0.5000000), wk =   0.0078125
        k(  160) = (   0.2500000  -0.1250000  -0.3750000), wk =   0.0078125
        k(  161) = (   0.2500000  -0.1250000  -0.2500000), wk =   0.0078125
        k(  162) = (   0.2500000  -0.1250000  -0.1250000), wk =   0.0078125
        k(  163) = (   0.3750000   0.0000000  -0.0000000), wk =   0.0078125
        k(  164) = (   0.3750000   0.0000000   0.1250000), wk =   0.0078125
        k(  165) = (   0.3750000  -0.0000000   0.2500000), wk =   0.0078125
        k(  166) = (   0.3750000   0.0000000   0.3750000), wk =   0.0078125
        k(  167) = (   0.3750000   0.0000000  -0.5000000), wk =   0.0078125
        k(  168) = (   0.3750000  -0.0000000  -0.3750000), wk =   0.0078125
        k(  169) = (   0.3750000  -0.0000000  -0.2500000), wk =   0.0078125
        k(  170) = (   0.3750000  -0.0000000  -0.1250000), wk =   0.0078125
        k(  171) = (   0.3750000   0.1250000   0.0000000), wk =   0.0078125
        k(  172) = (   0.3750000   0.1250000   0.1250000), wk =   0.0078125
        k(  173) = (   0.3750000   0.1250000   0.2500000), wk =   0.0078125
        k(  174) = (   0.3750000   0.1250000   0.3750000), wk =   0.0078125
        k(  175) = (   0.3750000   0.1250000  -0.5000000), wk =   0.0078125
        k(  176) = (   0.3750000   0.1250000  -0.3750000), wk =   0.0078125
        k(  177) = (   0.3750000   0.1250000  -0.2500000), wk =   0.0078125
        k(  178) = (   0.3750000   0.1250000  -0.1250000), wk =   0.0078125
        k(  179) = (   0.3750000   0.2500000   0.0000000), wk =   0.0078125
        k(  180) = (   0.3750000   0.2500000   0.1250000), wk =   0.0078125
        k(  181) = (   0.3750000   0.2500000   0.2500000), wk =   0.0078125
        k(  182) = (   0.3750000   0.2500000   0.3750000), wk =   0.0078125
        k(  183) = (   0.3750000   0.2500000  -0.5000000), wk =   0.0078125
        k(  184) = (   0.3750000   0.2500000  -0.3750000), wk =   0.0078125
        k(  185) = (   0.3750000   0.2500000  -0.2500000), wk =   0.0078125
        k(  186) = (   0.3750000   0.2500000  -0.1250000), wk =   0.0078125
        k(  187) = (   0.3750000   0.3750000   0.0000000), wk =   0.0078125
        k(  188) = (   0.3750000   0.3750000   0.1250000), wk =   0.0078125
        k(  189) = (   0.3750000   0.3750000   0.2500000), wk =   0.0078125
        k(  190) = (   0.3750000   0.3750000   0.3750000), wk =   0.0078125
        k(  191) = (   0.3750000   0.3750000  -0.5000000), wk =   0.0078125
        k(  192) = (   0.3750000   0.3750000  -0.3750000), wk =   0.0078125
        k(  193) = (   0.3750000   0.3750000  -0.2500000), wk =   0.0078125
        k(  194) = (   0.3750000   0.3750000  -0.1250000), wk =   0.0078125
        k(  195) = (   0.3750000  -0.5000000  -0.0000000), wk =   0.0078125
        k(  196) = (   0.3750000  -0.5000000   0.1250000), wk =   0.0078125
        k(  197) = (   0.3750000  -0.5000000   0.2500000), wk =   0.0078125
        k(  198) = (   0.3750000  -0.5000000   0.3750000), wk =   0.0078125
        k(  199) = (   0.3750000  -0.5000000  -0.5000000), wk =   0.0078125
        k(  200) = (   0.3750000  -0.5000000  -0.3750000), wk =   0.0078125
        k(  201) = (   0.3750000  -0.5000000  -0.2500000), wk =   0.0078125
        k(  202) = (   0.3750000  -0.5000000  -0.1250000), wk =   0.0078125
        k(  203) = (   0.3750000  -0.3750000  -0.0000000), wk =   0.0078125
        k(  204) = (   0.3750000  -0.3750000   0.1250000), wk =   0.0078125
        k(  205) = (   0.3750000  -0.3750000   0.2500000), wk =   0.0078125
        k(  206) = (   0.3750000  -0.3750000   0.3750000), wk =   0.0078125
        k(  207) = (   0.3750000  -0.3750000  -0.5000000), wk =   0.0078125
        k(  208) = (   0.3750000  -0.3750000  -0.3750000), wk =   0.0078125
        k(  209) = (   0.3750000  -0.3750000  -0.2500000), wk =   0.0078125
        k(  210) = (   0.3750000  -0.3750000  -0.1250000), wk =   0.0078125
        k(  211) = (   0.3750000  -0.2500000  -0.0000000), wk =   0.0078125
        k(  212) = (   0.3750000  -0.2500000   0.1250000), wk =   0.0078125
        k(  213) = (   0.3750000  -0.2500000   0.2500000), wk =   0.0078125
        k(  214) = (   0.3750000  -0.2500000   0.3750000), wk =   0.0078125
        k(  215) = (   0.3750000  -0.2500000  -0.5000000), wk =   0.0078125
        k(  216) = (   0.3750000  -0.2500000  -0.3750000), wk =   0.0078125
        k(  217) = (   0.3750000  -0.2500000  -0.2500000), wk =   0.0078125
        k(  218) = (   0.3750000  -0.2500000  -0.1250000), wk =   0.0078125
        k(  219) = (   0.3750000  -0.1250000  -0.0000000), wk =   0.0078125
        k(  220) = (   0.3750000  -0.1250000   0.1250000), wk =   0.0078125
        k(  221) = (   0.3750000  -0.1250000   0.2500000), wk =   0.0078125
        k(  222) = (   0.3750000  -0.1250000   0.3750000), wk =   0.0078125
        k(  223) = (   0.3750000  -0.1250000  -0.5000000), wk =   0.0078125
        k(  224) = (   0.3750000  -0.1250000  -0.3750000), wk =   0.0078125
        k(  225) = (   0.3750000  -0.1250000  -0.2500000), wk =   0.0078125
        k(  226) = (   0.3750000  -0.1250000  -0.1250000), wk =   0.0078125
        k(  227) = (  -0.5000000   0.0000000  -0.0000000), wk =   0.0039062
        k(  228) = (  -0.5000000   0.0000000   0.1250000), wk =   0.0078125
        k(  229) = (  -0.5000000   0.0000000   0.2500000), wk =   0.0078125
        k(  230) = (  -0.5000000   0.0000000   0.3750000), wk =   0.0078125
        k(  231) = (  -0.5000000   0.0000000  -0.5000000), wk =   0.0039062
        k(  232) = (  -0.5000000   0.1250000   0.0000000), wk =   0.0078125
        k(  233) = (  -0.5000000   0.1250000   0.1250000), wk =   0.0078125
        k(  234) = (  -0.5000000   0.1250000   0.2500000), wk =   0.0078125
        k(  235) = (  -0.5000000   0.1250000   0.3750000), wk =   0.0078125
        k(  236) = (  -0.5000000   0.1250000  -0.5000000), wk =   0.0078125
        k(  237) = (  -0.5000000   0.1250000  -0.3750000), wk =   0.0078125
        k(  238) = (  -0.5000000   0.1250000  -0.2500000), wk =   0.0078125
        k(  239) = (  -0.5000000   0.1250000  -0.1250000), wk =   0.0078125
        k(  240) = (  -0.5000000   0.2500000   0.0000000), wk =   0.0078125
        k(  241) = (  -0.5000000   0.2500000   0.1250000), wk =   0.0078125
        k(  242) = (  -0.5000000   0.2500000   0.2500000), wk =   0.0078125
        k(  243) = (  -0.5000000   0.2500000   0.3750000), wk =   0.0078125
        k(  244) = (  -0.5000000   0.2500000  -0.5000000), wk =   0.0078125
        k(  245) = (  -0.5000000   0.2500000  -0.3750000), wk =   0.0078125
        k(  246) = (  -0.5000000   0.2500000  -0.2500000), wk =   0.0078125
        k(  247) = (  -0.5000000   0.2500000  -0.1250000), wk =   0.0078125
        k(  248) = (  -0.5000000   0.3750000  -0.0000000), wk =   0.0078125
        k(  249) = (  -0.5000000   0.3750000   0.1250000), wk =   0.0078125
        k(  250) = (  -0.5000000   0.3750000   0.2500000), wk =   0.0078125
        k(  251) = (  -0.5000000   0.3750000   0.3750000), wk =   0.0078125
        k(  252) = (  -0.5000000   0.3750000  -0.5000000), wk =   0.0078125
        k(  253) = (  -0.5000000   0.3750000  -0.3750000), wk =   0.0078125
        k(  254) = (  -0.5000000   0.3750000  -0.2500000), wk =   0.0078125
        k(  255) = (  -0.5000000   0.3750000  -0.1250000), wk =   0.0078125
        k(  256) = (  -0.5000000  -0.5000000   0.0000000), wk =   0.0039062
        k(  257) = (  -0.5000000  -0.5000000   0.1250000), wk =   0.0078125
        k(  258) = (  -0.5000000  -0.5000000   0.2500000), wk =   0.0078125
        k(  259) = (  -0.5000000  -0.5000000   0.3750000), wk =   0.0078125
        k(  260) = (  -0.5000000  -0.5000000  -0.5000000), wk =   0.0039062

     Dense  grid:    77583 G-vectors     FFT dimensions: (  50,  50,  72)

     Smooth grid:    30159 G-vectors     FFT dimensions: (  40,  40,  54)

     Dynamical RAM for                 wfc:       0.08 MB

     Dynamical RAM for     wfc (w. buffer):       4.99 MB

     Dynamical RAM for           str. fact:       0.22 MB

     Dynamical RAM for           local pot:       0.00 MB

     Dynamical RAM for          nlocal pot:       0.23 MB

     Dynamical RAM for                qrad:       7.95 MB

     Dynamical RAM for          rho,v,vnew:       0.51 MB

     Dynamical RAM for               rhoin:       0.17 MB

     Dynamical RAM for            rho*nmix:       1.18 MB

     Dynamical RAM for           G-vectors:       0.29 MB

     Dynamical RAM for          h,s,v(r/c):       0.08 MB

     Dynamical RAM for          <psi|beta>:       0.02 MB

     Dynamical RAM for                 psi:       0.30 MB

     Dynamical RAM for                hpsi:       0.30 MB

     Dynamical RAM for                spsi:       0.30 MB

     Dynamical RAM for      wfcinit/wfcrot:       0.20 MB

     Dynamical RAM for           addusdens:       3.88 MB

     Dynamical RAM for          addusforce:       4.03 MB

     Dynamical RAM for         addusstress:       4.10 MB

     Estimated static dynamical RAM per process >      16.32 MB

     Estimated max dynamical RAM per process >      20.41 MB

     Estimated total dynamical RAM >       1.28 GB

     Check: negative core charge=   -0.000003

     Initial potential from superposition of free atoms

     starting charge   41.69964, renormalised to   42.00000
     Starting wfcs are   26 randomized atomic wfcs

     total cpu time spent up to now is        2.3 secs

     Self-consistent Calculation

     iteration #  1     ecut=    80.00 Ry     beta= 0.50
     Davidson diagonalization with overlap
     ethr =  1.00E-02,  avg # of iterations =  2.0

     total cpu time spent up to now is        3.2 secs

     total energy              =    -650.62360905 Ry
     Harris-Foulkes estimate   =    -651.45413018 Ry
     estimated scf accuracy    <       1.24432865 Ry

     iteration #  2     ecut=    80.00 Ry     beta= 0.50
     Davidson diagonalization with overlap
     ethr =  2.96E-03,  avg # of iterations =  3.0

     total cpu time spent up to now is        4.3 secs

     total energy              =    -651.01457379 Ry
     Harris-Foulkes estimate   =    -651.29867977 Ry
     estimated scf accuracy    <       0.65302824 Ry

     iteration #  3     ecut=    80.00 Ry     beta= 0.50
     Davidson diagonalization with overlap
     ethr =  1.55E-03,  avg # of iterations =  2.0

     total cpu time spent up to now is        5.2 secs

     total energy              =    -651.12482921 Ry
     Harris-Foulkes estimate   =    -651.12844311 Ry
     estimated scf accuracy    <       0.01035939 Ry

     iteration #  4     ecut=    80.00 Ry     beta= 0.50
     Davidson diagonalization with overlap
     ethr =  2.47E-05,  avg # of iterations =  2.9

     total cpu time spent up to now is        6.2 secs

     total energy              =    -651.12565148 Ry
     Harris-Foulkes estimate   =    -651.12695789 Ry
     estimated scf accuracy    <       0.00331286 Ry

     iteration #  5     ecut=    80.00 Ry     beta= 0.50
     Davidson diagonalization with overlap
     ethr =  7.89E-06,  avg # of iterations =  2.8

     total cpu time spent up to now is        7.2 secs

     total energy              =    -651.12625587 Ry
     Harris-Foulkes estimate   =    -651.12629017 Ry
     estimated scf accuracy    <       0.00016073 Ry

     iteration #  6     ecut=    80.00 Ry     beta= 0.50
     Davidson diagonalization with overlap
     ethr =  3.83E-07,  avg # of iterations =  2.1

     total cpu time spent up to now is        8.1 secs

     total energy              =    -651.12628153 Ry
     Harris-Foulkes estimate   =    -651.12627746 Ry
     estimated scf accuracy    <       0.00001275 Ry

     iteration #  7     ecut=    80.00 Ry     beta= 0.50
     Davidson diagonalization with overlap
     ethr =  3.04E-08,  avg # of iterations =  2.0

     total cpu time spent up to now is        9.0 secs

     End of self-consistent calculation

          k = 0.0000 0.0000 0.0000 (  3703 PWs)   bands (ev):

  -115.6924 -70.0678 -70.0415 -70.0415 -65.0147 -32.0225 -31.9767 -31.9767
   -10.2776  -9.0338   1.6334   1.6334   2.6002   2.9170   2.9170   3.0109
     5.7133   5.7133   6.8931   7.0770   7.0770

     occupation numbers 
     1.0000   1.0000   1.0000   1.0000   1.0000   1.0000   1.0000   1.0000
     1.0000   1.0000   1.0000   1.0000   1.0000   1.0000   1.0000   1.0000
     1.0000   1.0000   1.0000   1.0000   1.0000

          k =-0.0000 0.0000 0.0888 (  3763 PWs)   bands (ev):

  -115.6924 -70.0679 -70.0415 -70.0415 -65.0147 -32.0226 -31.9767 -31.9767
   -10.2484  -9.0656   1.6334   1.6334   2.4185   2.9086   2.9086   3.2259
     5.7392   5.7392   6.6312   7.0644   7.0644

     occupation numbers 
     1.0000   1.0000   1.0000   1.0000   1.0000   1.0000   1.0000   1.0000
     1.0000   1.0000   1.0000   1.0000   1.0000   1.0000   1.0000   1.0000
     1.0000   1.0000   1.0000   1.0000   1.0000

          k =-0.0000 0.0000 0.1777 (  3769 PWs)   bands (ev):

  -115.6924 -70.0679 -70.0415 -70.0415 -65.0147 -32.0227 -31.9767 -31.9767
   -10.1704  -9.1500   1.6333   1.6333   2.1862   2.8886   2.8886   3.5467
     5.8034   5.8034   6.1619   7.0320   7.0320

     occupation numbers 
     1.0000   1.0000   1.0000   1.0000   1.0000   1.0000   1.0000   1.0000
     1.0000   1.0000   1.0000   1.0000   1.0000   1.0000   1.0000   1.0000
     1.0000   1.0000   1.0000   1.0000   1.0000

          k =-0.0000 0.0000 0.2665 (  3770 PWs)   bands (ev):

  -115.6924 -70.0679 -70.0416 -70.0416 -65.0147 -32.0229 -31.9767 -31.9767
   -10.0765  -9.2503   1.6332   1.6332   2.0349   2.8691   2.8691   3.8046
     5.7815   5.8707   5.8707   6.9961   6.9961

     occupation numbers 
     1.0000   1.0000   1.0000   1.0000   1.0000   1.0000   1.0000   1.0000
     1.0000   1.0000   1.0000   1.0000   1.0000   1.0000   1.0000   1.0000
     1.0000   1.0000   1.0000   1.0000   1.0000

          k = 0.0000-0.0000-0.3553 (  3758 PWs)   bands (ev):

  -115.6924 -70.0679 -70.0416 -70.0416 -65.0147 -32.0229 -31.9767 -31.9767
   -10.0301  -9.2994   1.6331   1.6331   1.9836   2.8612   2.8612   3.9086
     5.6327   5.8997   5.8997   6.9800   6.9800

     occupation numbers 
     1.0000   1.0000   1.0000   1.0000   1.0000   1.0000   1.0000   1.0000
     1.0000   1.0000   1.0000   1.0000   1.0000   1.0000   1.0000   1.0000
     1.0000   1.0000   1.0000   1.0000   1.0000

          k =-0.0000 0.1443 0.0000 (  3767 PWs)   bands (ev):

  -115.6924 -70.0679 -70.0418 -70.0416 -65.0145 -32.0222 -31.9803 -31.9775
   -10.1979  -9.0101   1.6005   1.7149   2.5038   2.9108   2.9659   3.2026
     5.3626   5.6344   6.3873   6.8117   6.9162

     occupation numbers 
     1.0000   1.0000   1.0000   1.0000   1.0000   1.0000   1.0000   1.0000
     1.0000   1.0000   1.0000   1.0000   1.0000   1.0000   1.0000   1.0000
     1.0000   1.0000   1.0000   1.0000   1.0000

          k =-0.0000 0.1443 0.0888 (  3763 PWs)   bands (ev):

  -115.6924 -70.0679 -70.0418 -70.0416 -65.0145 -32.0222 -31.9803 -31.9775
   -10.1707  -9.0385   1.5985   1.7143   2.3951   2.8565   2.9027   3.4343
     5.3794   5.6690   6.1870   6.8924   6.9112

     occupation numbers 
     1.0000   1.0000   1.0000   1.0000   1.0000   1.0000   1.0000   1.0000
     1.0000   1.0000   1.0000   1.0000   1.0000   1.0000   1.0000   1.0000
     1.0000   1.0000   1.0000   1.0000   1.0000

          k =-0.0000 0.1443 0.1777 (  3768 PWs)   bands (ev):

  -115.6924 -70.0679 -70.0418 -70.0416 -65.0145 -32.0224 -31.9803 -31.9775
   -10.0983  -9.1136   1.5924   1.7140   2.1983   2.7681   2.8824   3.7519
     5.3980   5.7473   5.9365   6.8420   6.9527

     occupation numbers 
     1.0000   1.0000   1.0000   1.0000   1.0000   1.0000   1.0000   1.0000
     1.0000   1.0000   1.0000   1.0000   1.0000   1.0000   1.0000   1.0000
     1.0000   1.0000   1.0000   1.0000   1.0000

          k =-0.0000 0.1443 0.2665 (  3755 PWs)   bands (ev):

  -115.6924 -70.0678 -70.0418 -70.0416 -65.0145 -32.0225 -31.9803 -31.9775
   -10.0123  -9.2025   1.5843   1.7142   2.0554   2.7112   2.8622   3.9944
     5.3160   5.8276   5.8734   6.7898   6.9171

     occupation numbers 
     1.0000   1.0000   1.0000   1.0000   1.0000   1.0000   1.0000   1.0000
     1.0000   1.0000   1.0000   1.0000   1.0000   1.0000   1.0000   1.0000
     1.0000   1.0000   1.0000   1.0000   1.0000

          k = 0.0000 0.1443-0.3553 (  3748 PWs)   bands (ev):

  -115.6924 -70.0678 -70.0417 -70.0416 -65.0145 -32.0226 -31.9803 -31.9775
    -9.9704  -9.2456   1.5810   1.7148   2.0053   2.6905   2.8536   4.0805
     5.2722   5.8579   5.8840   6.7719   6.8804

     occupation numbers 
     1.0000   1.0000   1.0000   1.0000   1.0000   1.0000   1.0000   1.0000
     1.0000   1.0000   1.0000   1.0000   1.0000   1.0000   1.0000   1.0000
     1.0000   1.0000   1.0000   1.0000   1.0000

          k = 0.0000 0.1443-0.2665 (  3755 PWs)   bands (ev):

  -115.6924 -70.0678 -70.0418 -70.0416 -65.0145 -32.0225 -31.9803 -31.9775
   -10.0123  -9.2025   1.5858   1.7155   2.0537   2.7126   2.8612   3.9752
     5.3831   5.8154   5.8437   6.8041   6.8919

     occupation numbers 
     1.0000   1.0000   1.0000   1.0000   1.0000   1.0000   1.0000   1.0000
     1.0000   1.0000   1.0000   1.0000   1.0000   1.0000   1.0000   1.0000
     1.0000   1.0000   1.0000   1.0000   1.0000

          k = 0.0000 0.1443-0.1777 (  3768 PWs)   bands (ev):

  -115.6924 -70.0679 -70.0418 -70.0416 -65.0145 -32.0224 -31.9803 -31.9775
   -10.0982  -9.1137   1.5933   1.7157   2.1982   2.7701   2.8809   3.7313
     5.4683   5.7322   5.9178   6.8600   6.9099

     occupation numbers 
     1.0000   1.0000   1.0000   1.0000   1.0000   1.0000   1.0000   1.0000
     1.0000   1.0000   1.0000   1.0000   1.0000   1.0000   1.0000   1.0000
     1.0000   1.0000   1.0000   1.0000   1.0000

          k = 0.0000 0.1443-0.0888 (  3763 PWs)   bands (ev):

  -115.6924 -70.0679 -70.0418 -70.0416 -65.0145 -32.0222 -31.9803 -31.9775
   -10.1706  -9.0385   1.5986   1.7155   2.3972   2.8590   2.9017   3.4203
     5.4058   5.6595   6.2088   6.8651   6.9040

     occupation numbers 
     1.0000   1.0000   1.0000   1.0000   1.0000   1.0000   1.0000   1.0000
     1.0000   1.0000   1.0000   1.0000   1.0000   1.0000   1.0000   1.0000
     1.0000   1.0000   1.0000   1.0000   1.0000

          k =-0.0000 0.2887 0.0000 (  3788 PWs)   bands (ev):

  -115.6923 -70.0678 -70.0423 -70.0418 -65.0140 -32.0213 -31.9891 -31.9794
    -9.9935  -8.9596   1.5632   1.9333   2.3980   2.8998   2.9982   3.6550
     4.6151   5.3917   5.4022   6.5646   6.5682

     occupation numbers 
     1.0000   1.0000   1.0000   1.0000   1.0000   1.0000   1.0000   1.0000
     1.0000   1.0000   1.0000   1.0000   1.0000   1.0000   1.0000   1.0000
     1.0000   1.0000   1.0000   1.0000   1.0000

          k =-0.0000 0.2887 0.0888 (  3778 PWs)   bands (ev):

  -115.6923 -70.0678 -70.0423 -70.0418 -65.0140 -32.0214 -31.9890 -31.9794
    -9.9721  -8.9784   1.5591   1.9319   2.3309   2.8425   2.8919   3.8571
     4.6300   5.3034   5.4493   6.5249   6.6994

     occupation numbers 
     1.0000   1.0000   1.0000   1.0000   1.0000   1.0000   1.0000   1.0000
     1.0000   1.0000   1.0000   1.0000   1.0000   1.0000   1.0000   1.0000
     1.0000   1.0000   1.0000   1.0000   1.0000

          k =-0.0000 0.2887 0.1777 (  3768 PWs)   bands (ev):

  -115.6923 -70.0678 -70.0423 -70.0417 -65.0140 -32.0215 -31.9890 -31.9794
    -9.9163  -9.0281   1.5430   1.9310   2.1944   2.6264   2.8711   4.0891
     4.6345   5.3474   5.5597   6.4346   6.8415

     occupation numbers 
     1.0000   1.0000   1.0000   1.0000   1.0000   1.0000   1.0000   1.0000
     1.0000   1.0000   1.0000   1.0000   1.0000   1.0000   1.0000   1.0000
     1.0000   1.0000   1.0000   1.0000   1.0000

          k =-0.0000 0.2887 0.2665 (  3759 PWs)   bands (ev):

  -115.6923 -70.0678 -70.0423 -70.0417 -65.0140 -32.0217 -31.9890 -31.9794
    -9.8527  -9.0856   1.5217   1.9312   2.0784   2.4763   2.8502   4.2351
     4.5481   5.5763   5.6874   6.3273   6.8729

     occupation numbers 
     1.0000   1.0000   1.0000   1.0000   1.0000   1.0000   1.0000   1.0000
     1.0000   1.0000   1.0000   1.0000   1.0000   1.0000   1.0000   1.0000
     1.0000   1.0000   1.0000   1.0000   1.0000

          k = 0.0000 0.2887-0.3553 (  3772 PWs)   bands (ev):

  -115.6923 -70.0678 -70.0423 -70.0417 -65.0140 -32.0217 -31.9890 -31.9794
    -9.8232  -9.1127   1.5140   1.9323   2.0330   2.4237   2.8407   4.2017
     4.6050   5.7045   5.7414   6.2828   6.8281

     occupation numbers 
     1.0000   1.0000   1.0000   1.0000   1.0000   1.0000   1.0000   1.0000
     1.0000   1.0000   1.0000   1.0000   1.0000   1.0000   1.0000   1.0000
     1.0000   1.0000   1.0000   1.0000   1.0000

          k = 0.0000 0.2887-0.2665 (  3759 PWs)   bands (ev):

  -115.6923 -70.0678 -70.0423 -70.0417 -65.0140 -32.0217 -31.9890 -31.9794
    -9.8526  -9.0858   1.5267   1.9337   2.0777   2.4763   2.8479   4.0673
     4.7752   5.5724   5.6620   6.3555   6.7950

     occupation numbers 
     1.0000   1.0000   1.0000   1.0000   1.0000   1.0000   1.0000   1.0000
     1.0000   1.0000   1.0000   1.0000   1.0000   1.0000   1.0000   1.0000
     1.0000   1.0000   1.0000   1.0000   1.0000

          k = 0.0000 0.2887-0.1777 (  3768 PWs)   bands (ev):

  -115.6923 -70.0678 -70.0423 -70.0417 -65.0140 -32.0215 -31.9890 -31.9794
    -9.9162  -9.0283   1.5449   1.9346   2.2069   2.6251   2.8680   3.9109
     4.9030   5.3337   5.5335   6.4647   6.7275

     occupation numbers 
     1.0000   1.0000   1.0000   1.0000   1.0000   1.0000   1.0000   1.0000
     1.0000   1.0000   1.0000   1.0000   1.0000   1.0000   1.0000   1.0000
     1.0000   1.0000   1.0000   1.0000   1.0000

          k =-0.0000 0.2887-0.0888 (  3778 PWs)   bands (ev):

  -115.6923 -70.0678 -70.0423 -70.0418 -65.0140 -32.0214 -31.9890 -31.9794
    -9.9720  -8.9786   1.5578   1.9344   2.3462   2.8517   2.8897   3.7347
     4.7572   5.3539   5.4341   6.5429   6.6044

     occupation numbers 
     1.0000   1.0000   1.0000   1.0000   1.0000   1.0000   1.0000   1.0000
     1.0000   1.0000   1.0000   1.0000   1.0000   1.0000   1.0000   1.0000
     1.0000   1.0000   1.0000   1.0000   1.0000

          k =-0.0000 0.4330 0.0000 (  3774 PWs)   bands (ev):

  -115.6923 -70.0678 -70.0428 -70.0419 -65.0136 -32.0205 -31.9978 -31.9814
    -9.7657  -8.9248   1.6085   2.1925   2.3489   2.9028   2.9900   3.8442
     4.2452   4.6661   5.0775   6.2030   6.2754

     occupation numbers 
     1.0000   1.0000   1.0000   1.0000   1.0000   1.0000   1.0000   1.0000
     1.0000   1.0000   1.0000   1.0000   1.0000   1.0000   1.0000   1.0000
     1.0000   1.0000   1.0000   1.0000   1.0000

          k =-0.0000 0.4330 0.0888 (  3776 PWs)   bands (ev):

  -115.6923 -70.0678 -70.0428 -70.0419 -65.0136 -32.0205 -31.9978 -31.9814
    -9.7529  -8.9312   1.6073   2.1898   2.2756   2.8639   2.8956   3.7668
     4.4284   4.6613   5.1278   6.2304   6.3789

     occupation numbers 
     1.0000   1.0000   1.0000   1.0000   1.0000   1.0000   1.0000   1.0000
     1.0000   1.0000   1.0000   1.0000   1.0000   1.0000   1.0000   1.0000
     1.0000   1.0000   1.0000   1.0000   1.0000

          k =-0.0000 0.4330 0.1777 (  3783 PWs)   bands (ev):

  -115.6923 -70.0678 -70.0428 -70.0419 -65.0136 -32.0207 -31.9978 -31.9814
    -9.7205  -8.9480   1.5862   2.1509   2.1861   2.6127   2.8763   3.6566
     4.3713   5.1178   5.2546   6.1178   6.6541

     occupation numbers 
     1.0000   1.0000   1.0000   1.0000   1.0000   1.0000   1.0000   1.0000
     1.0000   1.0000   1.0000   1.0000   1.0000   1.0000   1.0000   1.0000
     1.0000   1.0000   1.0000   1.0000   1.0000

          k =-0.0000 0.4330 0.2665 (  3773 PWs)   bands (ev):

  -115.6923 -70.0678 -70.0428 -70.0419 -65.0136 -32.0208 -31.9978 -31.9814
    -9.6860  -8.9669   1.5533   2.0553   2.1835   2.3927   2.8569   3.6078
     4.3374   5.4174   5.5089   5.9689   6.8456

     occupation numbers 
     1.0000   1.0000   1.0000   1.0000   1.0000   1.0000   1.0000   1.0000
     1.0000   1.0000   1.0000   1.0000   1.0000   1.0000   1.0000   1.0000
     1.0000   1.0000   1.0000   1.0000   1.0000

          k = 0.0000 0.4330-0.3553 (  3786 PWs)   bands (ev):

  -115.6923 -70.0678 -70.0428 -70.0419 -65.0136 -32.0209 -31.9978 -31.9814
    -9.6710  -8.9756   1.5370   2.0251   2.1837   2.3085   2.8480   3.5741
     4.3493   5.5062   5.6841   5.8864   6.8731

     occupation numbers 
     1.0000   1.0000   1.0000   1.0000   1.0000   1.0000   1.0000   1.0000
     1.0000   1.0000   1.0000   1.0000   1.0000   1.0000   1.0000   1.0000
     1.0000   1.0000   1.0000   1.0000   1.0000

          k = 0.0000 0.4330-0.2665 (  3773 PWs)   bands (ev):

  -115.6923 -70.0678 -70.0428 -70.0419 -65.0136 -32.0208 -31.9978 -31.9814
    -9.6859  -8.9671   1.5482   2.0823   2.1865   2.3815   2.8542   3.5437
     4.3906   5.3963   5.5773   5.9918   6.7579

     occupation numbers 
     1.0000   1.0000   1.0000   1.0000   1.0000   1.0000   1.0000   1.0000
     1.0000   1.0000   1.0000   1.0000   1.0000   1.0000   1.0000   1.0000
     1.0000   1.0000   1.0000   1.0000   1.0000

          k = 0.0000 0.4330-0.1777 (  3783 PWs)   bands (ev):

  -115.6923 -70.0678 -70.0428 -70.0419 -65.0136 -32.0207 -31.9978 -31.9814
    -9.7203  -8.9483   1.5722   2.1903   2.2010   2.6086   2.8725   3.5290
     4.4312   5.2354   5.2596   6.1394   6.5238

     occupation numbers 
     1.0000   1.0000   1.0000   1.0000   1.0000   1.0000   1.0000   1.0000
     1.0000   1.0000   1.0000   1.0000   1.0000   1.0000   1.0000   1.0000
     1.0000   1.0000   1.0000   1.0000   1.0000

          k =-0.0000 0.4330-0.0888 (  3776 PWs)   bands (ev):

  -115.6923 -70.0678 -70.0428 -70.0419 -65.0136 -32.0205 -31.9978 -31.9814
    -9.7528  -8.9314   1.5949   2.1928   2.3130   2.8926   2.8929   3.6029
     4.3923   4.8990   5.1172   6.2429   6.2727

     occupation numbers 
     1.0000   1.0000   1.0000   1.0000   1.0000   1.0000   1.0000   1.0000
     1.0000   1.0000   1.0000   1.0000   1.0000   1.0000   1.0000   1.0000
     1.0000   1.0000   1.0000   1.0000   1.0000

          k = 0.0000-0.5774-0.0000 (  3794 PWs)   bands (ev):

  -115.6923 -70.0678 -70.0430 -70.0419 -65.0134 -32.0201 -32.0014 -31.9822
    -9.6609  -8.9185   1.6680   2.3145   2.3487   2.9162   2.9361   3.6011
     4.2914   4.6191   4.9026   5.9647   6.1754

     occupation numbers 
     1.0000   1.0000   1.0000   1.0000   1.0000   1.0000   1.0000   1.0000
     1.0000   1.0000   1.0000   1.0000   1.0000   1.0000   1.0000   1.0000
     1.0000   1.0000   1.0000   1.0000   1.0000

          k = 0.0000-0.5774 0.0888 (  3772 PWs)   bands (ev):

  -115.6923 -70.0678 -70.0430 -70.0419 -65.0134 -32.0202 -32.0014 -31.9822
    -9.6531  -8.9182   1.6559   2.2982   2.3119   2.8941   2.9086   3.3791
     4.2593   4.9100   4.9478   6.1147   6.1356

     occupation numbers 
     1.0000   1.0000   1.0000   1.0000   1.0000   1.0000   1.0000   1.0000
     1.0000   1.0000   1.0000   1.0000   1.0000   1.0000   1.0000   1.0000
     1.0000   1.0000   1.0000   1.0000   1.0000

          k = 0.0000-0.5774 0.1777 (  3776 PWs)   bands (ev):

  -115.6923 -70.0677 -70.0430 -70.0419 -65.0134 -32.0203 -32.0014 -31.9822
    -9.6341  -8.9176   1.6217   2.1972   2.3056   2.6680   2.8911   3.1793
     4.2607   5.0701   5.3161   6.0260   6.4656

     occupation numbers 
     1.0000   1.0000   1.0000   1.0000   1.0000   1.0000   1.0000   1.0000
     1.0000   1.0000   1.0000   1.0000   1.0000   1.0000   1.0000   1.0000
     1.0000   1.0000   1.0000   1.0000   1.0000

          k =-0.0000-0.5774 0.2665 (  3788 PWs)   bands (ev):

  -115.6923 -70.0678 -70.0430 -70.0419 -65.0134 -32.0204 -32.0014 -31.9822
    -9.6146  -8.9173   1.5814   2.1152   2.2992   2.3984   2.8747   3.1410
     4.2677   5.2272   5.6155   5.8805   6.7827

     occupation numbers 
     1.0000   1.0000   1.0000   1.0000   1.0000   1.0000   1.0000   1.0000
     1.0000   1.0000   1.0000   1.0000   1.0000   1.0000   1.0000   1.0000
     1.0000   1.0000   1.0000   1.0000   1.0000

          k = 0.0000-0.5774-0.3553 (  3772 PWs)   bands (ev):

  -115.6923 -70.0678 -70.0430 -70.0419 -65.0134 -32.0205 -32.0014 -31.9822
    -9.6064  -8.9174   1.5635   2.0817   2.2965   2.2982   2.8683   3.1356
     4.2701   5.3175   5.7296   5.7948   6.9008

     occupation numbers 
     1.0000   1.0000   1.0000   1.0000   1.0000   1.0000   1.0000   1.0000
     1.0000   1.0000   1.0000   1.0000   1.0000   1.0000   1.0000   1.0000
     1.0000   1.0000   1.0000   1.0000   1.0000

          k = 0.1250 0.0722-0.0000 (  3767 PWs)   bands (ev):

  -115.6924 -70.0679 -70.0418 -70.0416 -65.0145 -32.0222 -31.9803 -31.9775
   -10.1979  -9.0101   1.6004   1.7149   2.5038   2.9108   2.9659   3.2026
     5.3626   5.6344   6.3873   6.8117   6.9162

     occupation numbers 
     1.0000   1.0000   1.0000   1.0000   1.0000   1.0000   1.0000   1.0000
     1.0000   1.0000   1.0000   1.0000   1.0000   1.0000   1.0000   1.0000
     1.0000   1.0000   1.0000   1.0000   1.0000

          k = 0.1250 0.0722 0.0888 (  3763 PWs)   bands (ev):

  -115.6924 -70.0679 -70.0418 -70.0416 -65.0145 -32.0222 -31.9803 -31.9775
   -10.1706  -9.0385   1.5986   1.7155   2.3972   2.8590   2.9017   3.4203
     5.4058   5.6595   6.2088   6.8651   6.9040

     occupation numbers 
     1.0000   1.0000   1.0000   1.0000   1.0000   1.0000   1.0000   1.0000
     1.0000   1.0000   1.0000   1.0000   1.0000   1.0000   1.0000   1.0000
     1.0000   1.0000   1.0000   1.0000   1.0000

          k = 0.1250 0.0722 0.1777 (  3768 PWs)   bands (ev):

  -115.6924 -70.0679 -70.0418 -70.0416 -65.0145 -32.0224 -31.9803 -31.9775
   -10.0982  -9.1137   1.5933   1.7157   2.1982   2.7701   2.8809   3.7313
     5.4683   5.7322   5.9178   6.8600   6.9099

     occupation numbers 
     1.0000   1.0000   1.0000   1.0000   1.0000   1.0000   1.0000   1.0000
     1.0000   1.0000   1.0000   1.0000   1.0000   1.0000   1.0000   1.0000
     1.0000   1.0000   1.0000   1.0000   1.0000

          k = 0.1250 0.0722 0.2665 (  3755 PWs)   bands (ev):

  -115.6924 -70.0678 -70.0418 -70.0416 -65.0145 -32.0225 -31.9803 -31.9775
   -10.0123  -9.2025   1.5858   1.7155   2.0537   2.7126   2.8612   3.9752
     5.3831   5.8154   5.8437   6.8041   6.8919

     occupation numbers 
     1.0000   1.0000   1.0000   1.0000   1.0000   1.0000   1.0000   1.0000
     1.0000   1.0000   1.0000   1.0000   1.0000   1.0000   1.0000   1.0000
     1.0000   1.0000   1.0000   1.0000   1.0000

          k = 0.1250 0.0722-0.3553 (  3748 PWs)   bands (ev):

  -115.6924 -70.0678 -70.0417 -70.0416 -65.0145 -32.0226 -31.9803 -31.9775
    -9.9704  -9.2456   1.5810   1.7148   2.0053   2.6905   2.8536   4.0805
     5.2722   5.8579   5.8840   6.7719   6.8804

     occupation numbers 
     1.0000   1.0000   1.0000   1.0000   1.0000   1.0000   1.0000   1.0000
     1.0000   1.0000   1.0000   1.0000   1.0000   1.0000   1.0000   1.0000
     1.0000   1.0000   1.0000   1.0000   1.0000

          k = 0.1250 0.0722-0.2665 (  3755 PWs)   bands (ev):

  -115.6924 -70.0678 -70.0418 -70.0416 -65.0145 -32.0225 -31.9803 -31.9775
   -10.0123  -9.2025   1.5843   1.7142   2.0554   2.7112   2.8622   3.9944
     5.3160   5.8276   5.8734   6.7898   6.9171

     occupation numbers 
     1.0000   1.0000   1.0000   1.0000   1.0000   1.0000   1.0000   1.0000
     1.0000   1.0000   1.0000   1.0000   1.0000   1.0000   1.0000   1.0000
     1.0000   1.0000   1.0000   1.0000   1.0000

          k = 0.1250 0.0722-0.1777 (  3768 PWs)   bands (ev):

  -115.6924 -70.0679 -70.0418 -70.0416 -65.0145 -32.0224 -31.9803 -31.9775
   -10.0983  -9.1136   1.5924   1.7140   2.1983   2.7681   2.8824   3.7519
     5.3980   5.7473   5.9365   6.8420   6.9527

     occupation numbers 
     1.0000   1.0000   1.0000   1.0000   1.0000   1.0000   1.0000   1.0000
     1.0000   1.0000   1.0000   1.0000   1.0000   1.0000   1.0000   1.0000
     1.0000   1.0000   1.0000   1.0000   1.0000

          k = 0.1250 0.0722-0.0888 (  3763 PWs)   bands (ev):

  -115.6924 -70.0679 -70.0418 -70.0416 -65.0145 -32.0222 -31.9803 -31.9775
   -10.1707  -9.0385   1.5985   1.7143   2.3951   2.8565   2.9027   3.4343
     5.3794   5.6690   6.1870   6.8924   6.9112

     occupation numbers 
     1.0000   1.0000   1.0000   1.0000   1.0000   1.0000   1.0000   1.0000
     1.0000   1.0000   1.0000   1.0000   1.0000   1.0000   1.0000   1.0000
     1.0000   1.0000   1.0000   1.0000   1.0000

          k = 0.1250 0.2165 0.0000 (  3797 PWs)   bands (ev):

  -115.6924 -70.0679 -70.0421 -70.0418 -65.0142 -32.0216 -31.9861 -31.9792
   -10.0555  -8.9731   1.5778   1.8562   2.4251   2.8952   2.9926   3.5275
     4.8906   5.3099   5.7866   6.5467   6.6885

     occupation numbers 
     1.0000   1.0000   1.0000   1.0000   1.0000   1.0000   1.0000   1.0000
     1.0000   1.0000   1.0000   1.0000   1.0000   1.0000   1.0000   1.0000
     1.0000   1.0000   1.0000   1.0000   1.0000

          k = 0.1250 0.2165 0.0888 (  3781 PWs)   bands (ev):

  -115.6923 -70.0678 -70.0421 -70.0418 -65.0142 -32.0216 -31.9861 -31.9792
   -10.0322  -8.9950   1.5740   1.8555   2.3597   2.8458   2.8861   3.7051
     4.9329   5.3520   5.6984   6.5384   6.7554

     occupation numbers 
     1.0000   1.0000   1.0000   1.0000   1.0000   1.0000   1.0000   1.0000
     1.0000   1.0000   1.0000   1.0000   1.0000   1.0000   1.0000   1.0000
     1.0000   1.0000   1.0000   1.0000   1.0000

          k = 0.1250 0.2165 0.1777 (  3775 PWs)   bands (ev):

  -115.6923 -70.0678 -70.0421 -70.0417 -65.0142 -32.0218 -31.9861 -31.9792
    -9.9709  -9.0528   1.5619   1.8536   2.2100   2.6589   2.8634   3.9638
     4.9582   5.4786   5.6287   6.4706   6.8623

     occupation numbers 
     1.0000   1.0000   1.0000   1.0000   1.0000   1.0000   1.0000   1.0000
     1.0000   1.0000   1.0000   1.0000   1.0000   1.0000   1.0000   1.0000
     1.0000   1.0000   1.0000   1.0000   1.0000

          k = 0.1250 0.2165 0.2665 (  3755 PWs)   bands (ev):

  -115.6923 -70.0678 -70.0421 -70.0417 -65.0142 -32.0219 -31.9861 -31.9792
    -9.9003  -9.1202   1.5446   1.8513   2.0827   2.5382   2.8417   4.1543
     4.8629   5.6187   5.7458   6.3775   6.8878

     occupation numbers 
     1.0000   1.0000   1.0000   1.0000   1.0000   1.0000   1.0000   1.0000
     1.0000   1.0000   1.0000   1.0000   1.0000   1.0000   1.0000   1.0000
     1.0000   1.0000   1.0000   1.0000   1.0000

          k = 0.1250 0.2165-0.3553 (  3758 PWs)   bands (ev):

  -115.6923 -70.0678 -70.0421 -70.0417 -65.0142 -32.0220 -31.9861 -31.9792
    -9.8669  -9.1522   1.5356   1.8502   2.0374   2.4955   2.8329   4.2323
     4.7960   5.6759   5.8413   6.3302   6.8736

     occupation numbers 
     1.0000   1.0000   1.0000   1.0000   1.0000   1.0000   1.0000   1.0000
     1.0000   1.0000   1.0000   1.0000   1.0000   1.0000   1.0000   1.0000
     1.0000   1.0000   1.0000   1.0000   1.0000

          k = 0.1250 0.2165-0.2665 (  3755 PWs)   bands (ev):

  -115.6923 -70.0678 -70.0421 -70.0417 -65.0142 -32.0219 -31.9861 -31.9792
    -9.9003  -9.1202   1.5446   1.8513   2.0827   2.5382   2.8417   4.1543
     4.8629   5.6187   5.7458   6.3775   6.8878

     occupation numbers 
     1.0000   1.0000   1.0000   1.0000   1.0000   1.0000   1.0000   1.0000
     1.0000   1.0000   1.0000   1.0000   1.0000   1.0000   1.0000   1.0000
     1.0000   1.0000   1.0000   1.0000   1.0000

          k = 0.1250 0.2165-0.1777 (  3775 PWs)   bands (ev):

  -115.6923 -70.0678 -70.0421 -70.0417 -65.0142 -32.0218 -31.9861 -31.9792
    -9.9709  -9.0528   1.5619   1.8536   2.2100   2.6589   2.8634   3.9638
     4.9582   5.4786   5.6287   6.4706   6.8623

     occupation numbers 
     1.0000   1.0000   1.0000   1.0000   1.0000   1.0000   1.0000   1.0000
     1.0000   1.0000   1.0000   1.0000   1.0000   1.0000   1.0000   1.0000
     1.0000   1.0000   1.0000   1.0000   1.0000

          k = 0.1250 0.2165-0.0888 (  3781 PWs)   bands (ev):

  -115.6923 -70.0678 -70.0421 -70.0418 -65.0142 -32.0216 -31.9861 -31.9792
   -10.0322  -8.9950   1.5740   1.8555   2.3597   2.8458   2.8861   3.7051
     4.9329   5.3520   5.6984   6.5384   6.7554

     occupation numbers 
     1.0000   1.0000   1.0000   1.0000   1.0000   1.0000   1.0000   1.0000
     1.0000   1.0000   1.0000   1.0000   1.0000   1.0000   1.0000   1.0000
     1.0000   1.0000   1.0000   1.0000   1.0000

          k = 0.1250 0.3608 0.0000 (  3770 PWs)   bands (ev):

  -115.6923 -70.0678 -70.0426 -70.0419 -65.0137 -32.0207 -31.9941 -31.9820
    -9.8369  -8.9321   1.6264   2.0791   2.3780   2.8789   3.0062   3.9787
     4.2847   4.7311   5.2256   6.1532   6.3688

     occupation numbers 
     1.0000   1.0000   1.0000   1.0000   1.0000   1.0000   1.0000   1.0000
     1.0000   1.0000   1.0000   1.0000   1.0000   1.0000   1.0000   1.0000
     1.0000   1.0000   1.0000   1.0000   1.0000

          k = 0.1250 0.3608 0.0888 (  3775 PWs)   bands (ev):

  -115.6923 -70.0678 -70.0426 -70.0419 -65.0137 -32.0208 -31.9941 -31.9820
    -9.8211  -8.9427   1.6250   2.0676   2.3244   2.8603   2.8747   3.9885
     4.3509   4.8491   5.1992   6.1366   6.4926

     occupation numbers 
     1.0000   1.0000   1.0000   1.0000   1.0000   1.0000   1.0000   1.0000
     1.0000   1.0000   1.0000   1.0000   1.0000   1.0000   1.0000   1.0000
     1.0000   1.0000   1.0000   1.0000   1.0000

          k = 0.1250 0.3608 0.1777 (  3772 PWs)   bands (ev):

  -115.6923 -70.0678 -70.0426 -70.0419 -65.0137 -32.0209 -31.9941 -31.9819
    -9.7806  -8.9706   1.6104   2.0339   2.2301   2.6111   2.8462   3.9631
     4.3907   5.1335   5.3246   6.0236   6.7317

     occupation numbers 
     1.0000   1.0000   1.0000   1.0000   1.0000   1.0000   1.0000   1.0000
     1.0000   1.0000   1.0000   1.0000   1.0000   1.0000   1.0000   1.0000
     1.0000   1.0000   1.0000   1.0000   1.0000

          k = 0.1250 0.3608 0.2665 (  3777 PWs)   bands (ev):

  -115.6923 -70.0678 -70.0426 -70.0419 -65.0137 -32.0211 -31.9941 -31.9819
    -9.7364  -9.0022   1.5850   1.9850   2.1689   2.4153   2.8231   3.9600
     4.3814   5.2943   5.6011   5.9080   6.8965

     occupation numbers 
     1.0000   1.0000   1.0000   1.0000   1.0000   1.0000   1.0000   1.0000
     1.0000   1.0000   1.0000   1.0000   1.0000   1.0000   1.0000   1.0000
     1.0000   1.0000   1.0000   1.0000   1.0000

          k = 0.1250 0.3608-0.3553 (  3778 PWs)   bands (ev):

  -115.6923 -70.0678 -70.0426 -70.0419 -65.0137 -32.0211 -31.9941 -31.9819
    -9.7167  -9.0167   1.5718   1.9632   2.1493   2.3467   2.8133   3.9316
     4.4094   5.4075   5.6014   5.9377   6.9291

     occupation numbers 
     1.0000   1.0000   1.0000   1.0000   1.0000   1.0000   1.0000   1.0000
     1.0000   1.0000   1.0000   1.0000   1.0000   1.0000   1.0000   1.0000
     1.0000   1.0000   1.0000   1.0000   1.0000

          k = 0.1250 0.3608-0.2665 (  3777 PWs)   bands (ev):

  -115.6923 -70.0678 -70.0426 -70.0419 -65.0137 -32.0211 -31.9941 -31.9819
    -9.7363  -9.0023   1.5839   1.9940   2.1717   2.4105   2.8217   3.8800
     4.4751   5.2852   5.6202   5.9115   6.8547

     occupation numbers 
     1.0000   1.0000   1.0000   1.0000   1.0000   1.0000   1.0000   1.0000
     1.0000   1.0000   1.0000   1.0000   1.0000   1.0000   1.0000   1.0000
     1.0000   1.0000   1.0000   1.0000   1.0000

          k = 0.1250 0.3608-0.1777 (  3772 PWs)   bands (ev):

  -115.6923 -70.0678 -70.0426 -70.0419 -65.0137 -32.0209 -31.9941 -31.9819
    -9.7805  -8.9708   1.6041   2.0470   2.2434   2.6060   2.8444   3.8322
     4.5210   5.1592   5.3410   6.0117   6.6765

     occupation numbers 
     1.0000   1.0000   1.0000   1.0000   1.0000   1.0000   1.0000   1.0000
     1.0000   1.0000   1.0000   1.0000   1.0000   1.0000   1.0000   1.0000
     1.0000   1.0000   1.0000   1.0000   1.0000

          k = 0.1250 0.3608-0.0888 (  3775 PWs)   bands (ev):

  -115.6923 -70.0678 -70.0426 -70.0419 -65.0137 -32.0208 -31.9941 -31.9820
    -9.8210  -8.9428   1.6190   2.0741   2.3388   2.8620   2.8809   3.8395
     4.4595   4.9099   5.2066   6.1095   6.4613

     occupation numbers 
     1.0000   1.0000   1.0000   1.0000   1.0000   1.0000   1.0000   1.0000
     1.0000   1.0000   1.0000   1.0000   1.0000   1.0000   1.0000   1.0000
     1.0000   1.0000   1.0000   1.0000   1.0000

          k = 0.1250 0.5052 0.0000 (  3780 PWs)   bands (ev):

  -115.6923 -70.0678 -70.0429 -70.0421 -65.0134 -32.0201 -31.9997 -31.9839
    -9.6642  -8.9167   1.7517   2.2651   2.3869   2.8937   2.9582   3.6664
     4.3077   4.6009   4.8094   5.9246   6.0220

     occupation numbers 
     1.0000   1.0000   1.0000   1.0000   1.0000   1.0000   1.0000   1.0000
     1.0000   1.0000   1.0000   1.0000   1.0000   1.0000   1.0000   1.0000
     1.0000   1.0000   1.0000   1.0000   1.0000

          k = 0.1250 0.5052 0.0888 (  3778 PWs)   bands (ev):

  -115.6923 -70.0678 -70.0429 -70.0421 -65.0134 -32.0202 -31.9997 -31.9839
    -9.6562  -8.9167   1.7505   2.2212   2.3616   2.8825   2.8929   3.5120
     4.2689   4.6672   5.0297   5.9209   6.1562

     occupation numbers 
     1.0000   1.0000   1.0000   1.0000   1.0000   1.0000   1.0000   1.0000
     1.0000   1.0000   1.0000   1.0000   1.0000   1.0000   1.0000   1.0000
     1.0000   1.0000   1.0000   1.0000   1.0000

          k = 0.1250 0.5052 0.1777 (  3780 PWs)   bands (ev):

  -115.6923 -70.0678 -70.0429 -70.0421 -65.0134 -32.0203 -31.9997 -31.9839
    -9.6365  -8.9170   1.7273   2.1313   2.3323   2.6603   2.8694   3.3293
     4.2708   4.7635   5.4239   5.8205   6.5197

     occupation numbers 
     1.0000   1.0000   1.0000   1.0000   1.0000   1.0000   1.0000   1.0000
     1.0000   1.0000   1.0000   1.0000   1.0000   1.0000   1.0000   1.0000
[...]
    -9.6364  -8.9172   1.7079   2.1781   2.3321   2.6554   2.8742   3.2714
     4.2770   4.7917   5.4678   5.8137   6.4708

     occupation numbers 
     1.0000   1.0000   1.0000   1.0000   1.0000   1.0000   1.0000   1.0000
     1.0000   1.0000   1.0000   1.0000   1.0000   1.0000   1.0000   1.0000
     1.0000   1.0000   1.0000   1.0000   1.0000

          k =-0.5000-0.1443-0.0888 (  3778 PWs)   bands (ev):

  -115.6923 -70.0678 -70.0429 -70.0421 -65.0134 -32.0202 -31.9997 -31.9839
    -9.6562  -8.9168   1.7364   2.2488   2.3656   2.8742   2.9216   3.4383
     4.2366   4.7510   5.0633   5.8879   6.1349

     occupation numbers 
     1.0000   1.0000   1.0000   1.0000   1.0000   1.0000   1.0000   1.0000
     1.0000   1.0000   1.0000   1.0000   1.0000   1.0000   1.0000   1.0000
     1.0000   1.0000   1.0000   1.0000   1.0000

          k =-0.5000 0.0000 0.0000 (  3789 PWs)   bands (ev):

  -115.6923 -70.0678 -70.0428 -70.0422 -65.0134 -32.0201 -31.9975 -31.9861
    -9.6676  -8.9148   1.8560   2.2069   2.4075   2.8780   2.9883   3.8817
     4.0233   4.6405   4.8514   5.7016   6.0074

     occupation numbers 
     1.0000   1.0000   1.0000   1.0000   1.0000   1.0000   1.0000   1.0000
     1.0000   1.0000   1.0000   1.0000   1.0000   1.0000   1.0000   1.0000
     1.0000   1.0000   1.0000   1.0000   1.0000

          k =-0.5000 0.0000 0.0888 (  3784 PWs)   bands (ev):

  -115.6923 -70.0678 -70.0428 -70.0422 -65.0134 -32.0202 -31.9975 -31.9861
    -9.6593  -8.9153   1.8557   2.1715   2.3847   2.8558   2.9215   3.7223
     3.9525   4.7768   5.0600   5.6610   6.1529

     occupation numbers 
     1.0000   1.0000   1.0000   1.0000   1.0000   1.0000   1.0000   1.0000
     1.0000   1.0000   1.0000   1.0000   1.0000   1.0000   1.0000   1.0000
     1.0000   1.0000   1.0000   1.0000   1.0000

          k =-0.5000 0.0000 0.1777 (  3788 PWs)   bands (ev):

  -115.6923 -70.0678 -70.0428 -70.0422 -65.0134 -32.0203 -31.9975 -31.9861
    -9.6388  -8.9166   1.8525   2.0788   2.3450   2.6484   2.8594   3.5253
     4.0694   4.7210   5.4294   5.6516   6.5134

     occupation numbers 
     1.0000   1.0000   1.0000   1.0000   1.0000   1.0000   1.0000   1.0000
     1.0000   1.0000   1.0000   1.0000   1.0000   1.0000   1.0000   1.0000
     1.0000   1.0000   1.0000   1.0000   1.0000

          k =-0.5000 0.0000 0.2665 (  3781 PWs)   bands (ev):

  -115.6923 -70.0678 -70.0428 -70.0422 -65.0134 -32.0204 -31.9975 -31.9861
    -9.6179  -8.9184   1.8424   1.9849   2.3131   2.4084   2.8394   3.4749
     4.2069   4.7025   5.2907   5.9438   6.8760

     occupation numbers 
     1.0000   1.0000   1.0000   1.0000   1.0000   1.0000   1.0000   1.0000
     1.0000   1.0000   1.0000   1.0000   1.0000   1.0000   1.0000   1.0000
     1.0000   1.0000   1.0000   1.0000   1.0000

          k =-0.5000-0.0000-0.3553 (  3790 PWs)   bands (ev):

  -115.6923 -70.0678 -70.0428 -70.0422 -65.0134 -32.0205 -31.9975 -31.9861
    -9.6090  -8.9193   1.8339   1.9472   2.2882   2.3326   2.8326   3.4662
     4.2679   4.7197   5.1909   6.0591   7.0253

     occupation numbers 
     1.0000   1.0000   1.0000   1.0000   1.0000   1.0000   1.0000   1.0000
     1.0000   1.0000   1.0000   1.0000   1.0000   1.0000   1.0000   1.0000
     1.0000   1.0000   1.0000   1.0000   1.0000

          k =-0.5000-0.0000-0.2665 (  3781 PWs)   bands (ev):

  -115.6923 -70.0678 -70.0428 -70.0422 -65.0134 -32.0204 -31.9975 -31.9861
    -9.6179  -8.9184   1.8424   1.9849   2.3131   2.4084   2.8394   3.4749
     4.2069   4.7025   5.2907   5.9438   6.8760

     occupation numbers 
     1.0000   1.0000   1.0000   1.0000   1.0000   1.0000   1.0000   1.0000
     1.0000   1.0000   1.0000   1.0000   1.0000   1.0000   1.0000   1.0000
     1.0000   1.0000   1.0000   1.0000   1.0000

          k =-0.5000 0.0000-0.1777 (  3788 PWs)   bands (ev):

  -115.6923 -70.0678 -70.0428 -70.0422 -65.0134 -32.0203 -31.9975 -31.9861
    -9.6388  -8.9166   1.8525   2.0788   2.3450   2.6484   2.8594   3.5253
     4.0694   4.7210   5.4294   5.6516   6.5134

     occupation numbers 
     1.0000   1.0000   1.0000   1.0000   1.0000   1.0000   1.0000   1.0000
     1.0000   1.0000   1.0000   1.0000   1.0000   1.0000   1.0000   1.0000
     1.0000   1.0000   1.0000   1.0000   1.0000

          k =-0.5000 0.0000-0.0888 (  3784 PWs)   bands (ev):

  -115.6923 -70.0678 -70.0428 -70.0422 -65.0134 -32.0202 -31.9975 -31.9861
    -9.6593  -8.9153   1.8557   2.1715   2.3847   2.8558   2.9215   3.7223
     3.9525   4.7768   5.0599   5.6610   6.1529

     occupation numbers 
     1.0000   1.0000   1.0000   1.0000   1.0000   1.0000   1.0000   1.0000
     1.0000   1.0000   1.0000   1.0000   1.0000   1.0000   1.0000   1.0000
     1.0000   1.0000   1.0000   1.0000   1.0000

          k =-0.5000 0.1443 0.0000 (  3780 PWs)   bands (ev):

  -115.6923 -70.0678 -70.0429 -70.0421 -65.0134 -32.0201 -31.9997 -31.9839
    -9.6642  -8.9167   1.7517   2.2651   2.3869   2.8937   2.9582   3.6664
     4.3077   4.6009   4.8094   5.9246   6.0220

     occupation numbers 
     1.0000   1.0000   1.0000   1.0000   1.0000   1.0000   1.0000   1.0000
     1.0000   1.0000   1.0000   1.0000   1.0000   1.0000   1.0000   1.0000
     1.0000   1.0000   1.0000   1.0000   1.0000

          k =-0.5000 0.1443 0.0888 (  3778 PWs)   bands (ev):

  -115.6923 -70.0678 -70.0429 -70.0421 -65.0134 -32.0202 -31.9997 -31.9839
    -9.6562  -8.9168   1.7364   2.2488   2.3656   2.8742   2.9216   3.4383
     4.2366   4.7510   5.0633   5.8879   6.1349

     occupation numbers 
     1.0000   1.0000   1.0000   1.0000   1.0000   1.0000   1.0000   1.0000
     1.0000   1.0000   1.0000   1.0000   1.0000   1.0000   1.0000   1.0000
     1.0000   1.0000   1.0000   1.0000   1.0000

          k =-0.5000 0.1443 0.1777 (  3780 PWs)   bands (ev):

  -115.6923 -70.0678 -70.0429 -70.0421 -65.0134 -32.0203 -31.9997 -31.9839
    -9.6364  -8.9172   1.7079   2.1781   2.3321   2.6554   2.8742   3.2714
     4.2770   4.7917   5.4678   5.8137   6.4708

     occupation numbers 
     1.0000   1.0000   1.0000   1.0000   1.0000   1.0000   1.0000   1.0000
     1.0000   1.0000   1.0000   1.0000   1.0000   1.0000   1.0000   1.0000
     1.0000   1.0000   1.0000   1.0000   1.0000

          k =-0.5000 0.1443 0.2665 (  3787 PWs)   bands (ev):

  -115.6923 -70.0678 -70.0429 -70.0421 -65.0134 -32.0204 -31.9997 -31.9839
    -9.6162  -8.9179   1.6764   2.0961   2.3083   2.3996   2.8551   3.2492
     4.3089   4.9053   5.4974   5.9082   6.8218

     occupation numbers 
     1.0000   1.0000   1.0000   1.0000   1.0000   1.0000   1.0000   1.0000
     1.0000   1.0000   1.0000   1.0000   1.0000   1.0000   1.0000   1.0000
     1.0000   1.0000   1.0000   1.0000   1.0000

          k =-0.5000 0.1443-0.3553 (  3790 PWs)   bands (ev):

  -115.6923 -70.0678 -70.0429 -70.0421 -65.0134 -32.0205 -31.9997 -31.9839
    -9.6077  -8.9183   1.6647   2.0481   2.2819   2.3321   2.8478   3.2557
     4.3110   4.9965   5.4054   5.9900   6.9739

     occupation numbers 
     1.0000   1.0000   1.0000   1.0000   1.0000   1.0000   1.0000   1.0000
     1.0000   1.0000   1.0000   1.0000   1.0000   1.0000   1.0000   1.0000
     1.0000   1.0000   1.0000   1.0000   1.0000

          k =-0.5000 0.1443-0.2665 (  3787 PWs)   bands (ev):

  -115.6923 -70.0678 -70.0429 -70.0421 -65.0134 -32.0204 -31.9997 -31.9839
    -9.6163  -8.9179   1.6877   2.0624   2.3106   2.4123   2.8535   3.2737
     4.2963   4.8991   5.4944   5.8890   6.8542

     occupation numbers 
     1.0000   1.0000   1.0000   1.0000   1.0000   1.0000   1.0000   1.0000
     1.0000   1.0000   1.0000   1.0000   1.0000   1.0000   1.0000   1.0000
     1.0000   1.0000   1.0000   1.0000   1.0000

          k =-0.5000 0.1443-0.1777 (  3780 PWs)   bands (ev):

  -115.6923 -70.0678 -70.0429 -70.0421 -65.0134 -32.0203 -31.9997 -31.9839
    -9.6365  -8.9170   1.7273   2.1313   2.3323   2.6603   2.8694   3.3293
     4.2708   4.7634   5.4239   5.8205   6.5197

     occupation numbers 
     1.0000   1.0000   1.0000   1.0000   1.0000   1.0000   1.0000   1.0000
     1.0000   1.0000   1.0000   1.0000   1.0000   1.0000   1.0000   1.0000
     1.0000   1.0000   1.0000   1.0000   1.0000

          k =-0.5000 0.1443-0.0888 (  3778 PWs)   bands (ev):

  -115.6923 -70.0678 -70.0429 -70.0421 -65.0134 -32.0202 -31.9997 -31.9839
    -9.6562  -8.9167   1.7505   2.2212   2.3616   2.8825   2.8929   3.5120
     4.2689   4.6672   5.0297   5.9209   6.1562

     occupation numbers 
     1.0000   1.0000   1.0000   1.0000   1.0000   1.0000   1.0000   1.0000
     1.0000   1.0000   1.0000   1.0000   1.0000   1.0000   1.0000   1.0000
     1.0000   1.0000   1.0000   1.0000   1.0000

          k =-0.5000-0.8660-0.0000 (  3794 PWs)   bands (ev):

  -115.6923 -70.0678 -70.0430 -70.0419 -65.0134 -32.0201 -32.0014 -31.9822
    -9.6609  -8.9185   1.6680   2.3145   2.3487   2.9162   2.9361   3.6011
     4.2914   4.6191   4.9026   5.9647   6.1754

     occupation numbers 
     1.0000   1.0000   1.0000   1.0000   1.0000   1.0000   1.0000   1.0000
     1.0000   1.0000   1.0000   1.0000   1.0000   1.0000   1.0000   1.0000
     1.0000   1.0000   1.0000   1.0000   1.0000

          k =-0.5000-0.8660 0.0888 (  3772 PWs)   bands (ev):

  -115.6923 -70.0678 -70.0430 -70.0419 -65.0134 -32.0202 -32.0014 -31.9822
    -9.6531  -8.9182   1.6559   2.2982   2.3119   2.8941   2.9086   3.3790
     4.2593   4.9100   4.9478   6.1147   6.1356

     occupation numbers 
     1.0000   1.0000   1.0000   1.0000   1.0000   1.0000   1.0000   1.0000
     1.0000   1.0000   1.0000   1.0000   1.0000   1.0000   1.0000   1.0000
     1.0000   1.0000   1.0000   1.0000   1.0000

          k =-0.5000-0.8660 0.1777 (  3776 PWs)   bands (ev):

  -115.6923 -70.0677 -70.0430 -70.0419 -65.0134 -32.0203 -32.0014 -31.9822
    -9.6341  -8.9176   1.6217   2.1972   2.3056   2.6680   2.8911   3.1793
     4.2607   5.0701   5.3161   6.0260   6.4655

     occupation numbers 
     1.0000   1.0000   1.0000   1.0000   1.0000   1.0000   1.0000   1.0000
     1.0000   1.0000   1.0000   1.0000   1.0000   1.0000   1.0000   1.0000
     1.0000   1.0000   1.0000   1.0000   1.0000

          k =-0.5000-0.8660 0.2665 (  3788 PWs)   bands (ev):

  -115.6923 -70.0678 -70.0430 -70.0419 -65.0134 -32.0204 -32.0014 -31.9822
    -9.6146  -8.9173   1.5814   2.1152   2.2992   2.3984   2.8747   3.1410
     4.2677   5.2272   5.6155   5.8805   6.7827

     occupation numbers 
     1.0000   1.0000   1.0000   1.0000   1.0000   1.0000   1.0000   1.0000
     1.0000   1.0000   1.0000   1.0000   1.0000   1.0000   1.0000   1.0000
     1.0000   1.0000   1.0000   1.0000   1.0000

          k =-0.5000-0.8660-0.3553 (  3772 PWs)   bands (ev):

  -115.6923 -70.0678 -70.0430 -70.0419 -65.0134 -32.0205 -32.0014 -31.9822
    -9.6064  -8.9174   1.5635   2.0817   2.2965   2.2982   2.8683   3.1356
     4.2701   5.3175   5.7296   5.7948   6.9008

     occupation numbers 
     1.0000   1.0000   1.0000   1.0000   1.0000   1.0000   1.0000   1.0000
     1.0000   1.0000   1.0000   1.0000   1.0000   1.0000   1.0000   1.0000
     1.0000   1.0000   1.0000   1.0000   1.0000

     highest occupied level (ev):     7.0770

!    total energy              =    -651.12628300 Ry
     Harris-Foulkes estimate   =    -651.12628260 Ry
     estimated scf accuracy    <       0.00000076 Ry

     The total energy is the sum of the following terms:

     one-electron contribution =    -530.53086344 Ry
     hartree contribution      =     278.88834830 Ry
     xc contribution           =     -73.07976685 Ry
     ewald contribution        =    -326.40400102 Ry

     convergence has been achieved in   7 iterations

     Forces acting on atoms (cartesian axes, Ry/au):

     atom    1 type  3   force =     0.00000014   -0.00000045   -0.00150507
     atom    2 type  3   force =     0.00000011    0.00000039   -0.00725854
     atom    3 type  2   force =     0.00000084    0.00000054    0.01330885
     atom    4 type  1   force =    -0.00000109   -0.00000048   -0.00454524
     The non-local contrib.  to forces
     atom    1 type  3   force =    -0.00000017   -0.00000162   -0.16567597
     atom    2 type  3   force =     0.00000024    0.00000113   -0.01404130
     atom    3 type  2   force =     0.00000062   -0.00000388   -0.27851725
     atom    4 type  1   force =     0.00000049   -0.00000098   -0.09710449
     The ionic contribution  to forces
     atom    1 type  3   force =    -0.00000340    0.00002466    4.64915242
     atom    2 type  3   force =    -0.00000531    0.00001308   -2.49668216
     atom    3 type  2   force =     0.00000423   -0.00002346   -1.00222486
     atom    4 type  1   force =     0.00000449   -0.00001427   -1.15024540
     The local contribution  to forces
     atom    1 type  3   force =     0.00000332   -0.00002289   -4.48666467
     atom    2 type  3   force =     0.00000594   -0.00001348    2.50447697
     atom    3 type  2   force =    -0.00000600    0.00002790    1.29323929
     atom    4 type  1   force =    -0.00000463    0.00001469    1.24297474
     The core correction contribution to forces
     atom    1 type  3   force =     0.00000001   -0.00000000    0.00129983
     atom    2 type  3   force =     0.00000001   -0.00000001   -0.00046004
     atom    3 type  2   force =     0.00000000    0.00000000    0.00000000
     atom    4 type  1   force =     0.00000000    0.00000000    0.00000000
     The Hubbard contrib.    to forces
     atom    1 type  3   force =     0.00000000    0.00000000    0.00000000
     atom    2 type  3   force =     0.00000000    0.00000000    0.00000000
     atom    3 type  2   force =     0.00000000    0.00000000    0.00000000
     atom    4 type  1   force =     0.00000000    0.00000000    0.00000000
     The SCF correction term to forces
     atom    1 type  3   force =     0.00000000    0.00000000    0.00000000
     atom    2 type  3   force =     0.00000000    0.00000000    0.00000000
     atom    3 type  2   force =     0.00000000    0.00000000    0.00000000
     atom    4 type  1   force =     0.00000000    0.00000000    0.00000000

     Total force =     0.000000     Total SCF correction =     0.000000


     Computing stress (Cartesian axis) and pressure

          total   stress  (Ry/bohr**3)                   (kbar)     P=   -1.11
  -0.00000776   0.00000000  -0.00000001         -1.14      0.00     -0.00
   0.00000000  -0.00000777   0.00000001          0.00     -1.14      0.00
  -0.00000001   0.00000001  -0.00000709         -0.00      0.00     -1.04

     kinetic stress (kbar)  26957.59     -0.00     -0.00
                               -0.00  26957.59      0.00
                               -0.00      0.00  27133.57

     local   stress (kbar) -15033.52     -0.01     -0.03
                               -0.01 -15033.54      0.04
                               -0.03      0.04  -1234.49

     nonloc. stress (kbar)   1824.29      0.00      0.00
                                0.00   1824.29     -0.00
                                0.00     -0.00   1748.51

     hartree stress (kbar)  45830.04      0.01      0.01
                                0.01  45830.04     -0.02
                                0.01     -0.02  39590.08

     exc-cor stress (kbar) -10673.09      0.00      0.00
                                0.00 -10673.09     -0.00
                                0.00     -0.00 -10676.52

     corecor stress (kbar)   -254.28      0.00      0.00
                                0.00   -254.28     -0.00
                                0.00     -0.00   -254.59

     ewald   stress (kbar) -48652.17      0.01      0.02
                                0.01 -48652.17     -0.02
                                0.02     -0.02 -56307.59

     hubbard stress (kbar)      0.00      0.00      0.00
                                0.00      0.00      0.00
                                0.00      0.00      0.00

     london  stress (kbar)      0.00      0.00      0.00
                                0.00      0.00      0.00
                                0.00      0.00      0.00

     DFT-D3  stress (kbar)      0.00      0.00      0.00
                                0.00      0.00      0.00
                                0.00      0.00      0.00

     XDM     stress (kbar)      0.00      0.00      0.00
                                0.00      0.00      0.00
                                0.00      0.00      0.00

     dft-nl  stress (kbar)      0.00      0.00      0.00
                                0.00      0.00      0.00
                                0.00      0.00      0.00

     TS-vdW  stress (kbar)      0.00      0.00      0.00
                                0.00      0.00      0.00
                                0.00      0.00      0.00



     Writing output data file ZnO.save/
 
     init_run     :      0.52s CPU      1.37s WALL (       1 calls)
     electrons    :      6.16s CPU      6.78s WALL (       1 calls)
     forces       :      0.15s CPU      0.25s WALL (       1 calls)
     stress       :      0.29s CPU      0.36s WALL (       1 calls)

     Called by init_run:
     wfcinit      :      0.32s CPU      0.62s WALL (       1 calls)
     wfcinit:atom :      0.00s CPU      0.00s WALL (      65 calls)
     wfcinit:wfcr :      0.31s CPU      0.60s WALL (      65 calls)
     potinit      :      0.07s CPU      0.13s WALL (       1 calls)
     hinit0       :      0.10s CPU      0.42s WALL (       1 calls)

     Called by electrons:
     c_bands      :      5.15s CPU      5.53s WALL (       7 calls)
     sum_band     :      0.75s CPU      0.84s WALL (       7 calls)
     v_of_rho     :      0.21s CPU      0.23s WALL (       8 calls)
     v_h          :      0.00s CPU      0.00s WALL (       8 calls)
     v_xc         :      0.26s CPU      0.28s WALL (      10 calls)
     newd         :      0.05s CPU      0.07s WALL (       8 calls)
     mix_rho      :      0.01s CPU      0.03s WALL (       7 calls)

     Called by c_bands:
     init_us_2    :      0.08s CPU      0.09s WALL (    1105 calls)
     cegterg      :      4.79s CPU      5.03s WALL (     455 calls)

     Called by sum_band:
     sum_band:bec :      0.00s CPU      0.01s WALL (     455 calls)
     addusdens    :      0.05s CPU      0.06s WALL (       7 calls)

     Called by *egterg:
     h_psi        :      2.99s CPU      3.11s WALL (    1621 calls)
     s_psi        :      0.10s CPU      0.10s WALL (    1621 calls)
     g_psi        :      0.01s CPU      0.01s WALL (    1101 calls)
     cdiaghg      :      1.25s CPU      1.58s WALL (    1556 calls)
     cegterg:over :      0.36s CPU      0.41s WALL (    1101 calls)
     cegterg:upda :      0.16s CPU      0.17s WALL (    1101 calls)
     cegterg:last :      0.09s CPU      0.09s WALL (     455 calls)
     cdiaghg:chol :      0.09s CPU      0.13s WALL (    1556 calls)
     cdiaghg:inve :      0.02s CPU      0.03s WALL (    1556 calls)
     cdiaghg:para :      0.12s CPU      0.14s WALL (    3112 calls)

     Called by h_psi:
     h_psi:pot    :      2.98s CPU      3.10s WALL (    1621 calls)
     h_psi:calbec :      0.18s CPU      0.19s WALL (    1621 calls)
     vloc_psi     :      2.70s CPU      2.80s WALL (    1621 calls)
     add_vuspsi   :      0.10s CPU      0.10s WALL (    1621 calls)

     General routines
     calbec       :      0.29s CPU      0.30s WALL (    2401 calls)
     fft          :      0.04s CPU      0.11s WALL (     127 calls)
     ffts         :      0.00s CPU      0.00s WALL (      15 calls)
     fftw         :      3.07s CPU      3.18s WALL (   60665 calls)
     interpolate  :      0.00s CPU      0.01s WALL (       8 calls)
 
     Parallel routines
     fft_scatt_xy :      0.47s CPU      0.49s WALL (   60807 calls)
     fft_scatt_yz :      1.57s CPU      1.64s WALL (   60807 calls)
 
     PWSCF        :      7.64s CPU     10.92s WALL

 
   This run was terminated on:  20:12:55  16Jun2022            

=------------------------------------------------------------------------------=
   JOB DONE.
=------------------------------------------------------------------------------=
