
     Program PWSCF v.6.4.1 starts on 16Jun2022 at 15:13:38 

     This program is part of the open-source Quantum ESPRESSO suite
     for quantum simulation of materials; please cite
         "P. Giannozzi et al., J. Phys.:Condens. Matter 21 395502 (2009);
         "P. Giannozzi et al., J. Phys.:Condens. Matter 29 465901 (2017);
          URL http://www.quantum-espresso.org", 
     in publications or presentations arising from this work. More details at
     http://www.quantum-espresso.org/quote

     Parallel version (MPI), running on    64 processors

     MPI processes distributed on     1 nodes
     K-points division:     npool     =       4
     R & G space division:  proc/nbgrp/npool/nimage =      16
     Waiting for input...
     Reading input from standard input
Warning: card &IONS ignored
Warning: card   UPSCALE           = 100.D0, ignored
Warning: card / ignored
Warning: card &CELL ignored
Warning: card   CELL_DYNAMICS     = 'BFGS' ignored
Warning: card   PRESS_CONV_THR    = 0.5D0 ignored
Warning: card   CELL_DOFREE = 'ALL' ignored
Warning: card / ignored

     Current dimensions of program PWSCF are:
     Max number of different atomic species (ntypx) = 10
     Max number of k-points (npk) =  40000
     Max angular momentum in pseudopotentials (lmaxx) =  3

     Subspace diagonalization in iterative solution of the eigenvalue problem:
     one sub-group per band group will be used
     scalapack distributed-memory algorithm (size of sub-group:  2*  2 procs)

 
     Parallelization info
     --------------------
     sticks:   dense  smooth     PW     G-vecs:    dense   smooth      PW
     Min         102      53     16                 4884     1893     328
     Max         103      54     17                 4889     1900     333
     Sum        1639     859    271                78185    30347    5279
 


     bravais-lattice index     =            0
     lattice parameter (alat)  =       6.2892  a.u.
     unit-cell volume          =     314.4665 (a.u.)^3
     number of atoms/cell      =            4
     number of atomic types    =            2
     number of electrons       =        52.00
     number of Kohn-Sham states=           26
     kinetic-energy cutoff     =      80.0000  Ry
     charge density cutoff     =     600.0000  Ry
     convergence threshold     =      1.0E-06
     mixing beta               =       0.5000
     number of iterations used =            8  plain     mixing
     Exchange-correlation      = SLA  PW   PSX  PSC ( 1  4 10  8 0 0)
     Using LIBXC version       =    4   3   4

     celldm(1)=   6.289159  celldm(2)=   0.000000  celldm(3)=   0.000000
     celldm(4)=   0.000000  celldm(5)=   0.000000  celldm(6)=   0.000000

     crystal axes: (cart. coord. in units of alat)
               a(1) = (   1.000000   0.000000   0.000000 )  
               a(2) = (  -0.500000   0.866025  -0.000000 )  
               a(3) = (   0.000000  -0.000000   1.459708 )  

     reciprocal axes: (cart. coord. in units 2 pi/alat)
               b(1) = (  1.000000  0.577350 -0.000000 )  
               b(2) = ( -0.000000  1.154701  0.000000 )  
               b(3) = ( -0.000000  0.000000  0.685069 )  


     PseudoPot. # 1 for Zn read from file:
     ./GBRV_PBEsol/zn_pbesol_v1.uspp.F.UPF
     MD5 check sum: 7d8615e52efe7c1e2b1899de8658bae2
     Pseudo is Ultrasoft, Zval = 20.0
     Generated by new atomic code, or converted to UPF format
     Using radial grid of  943 points,  6 beta functions with: 
                l(1) =   0
                l(2) =   0
                l(3) =   1
                l(4) =   1
                l(5) =   2
                l(6) =   2
     Q(r) pseudized with  8 coefficients,  rinner =    1.100   1.100   1.100
                                                       1.100   1.100

     PseudoPot. # 2 for O  read from file:
     ./GBRV_PBEsol/o_pbesol_v1.2.uspp.F.UPF
     MD5 check sum: 501638753501ef6325af9037351f7734
     Pseudo is Ultrasoft + core correction, Zval =  6.0
     Generated by new atomic code, or converted to UPF format
     Using radial grid of  737 points,  5 beta functions with: 
                l(1) =   0
                l(2) =   0
                l(3) =   1
                l(4) =   1
                l(5) =   2
     Q(r) pseudized with  8 coefficients,  rinner =    0.900   0.900   0.900
                                                       0.900   0.900

     atomic species   valence    mass     pseudopotential
        Zn            20.00    65.38000     Zn( 1.00)
        O              6.00    15.99900     O ( 1.00)

     No symmetry found


                                    s                        frac. trans.

      isym =  1     identity                                     

 cryst.   s( 1) = (     1          0          0      )
                  (     0          1          0      )
                  (     0          0          1      )

 cart.    s( 1) = (  1.0000000 -0.0000000  0.0000000 )
                  (  0.0000000  1.0000000  0.0000000 )
                  (  0.0000000 -0.0000000  1.0000000 )


   Cartesian axes

     site n.     atom                  positions (alat units)
         1           O   tau(   1) = (   0.5000002   0.2886755   0.0107228  )
         2           O   tau(   2) = (   0.0000003   0.5773492   0.7405765  )
         3           Zn  tau(   3) = (   0.5000002   0.2886746   0.8413089  )
         4           Zn  tau(   4) = (   0.0000002   0.5773507   1.5711627  )

   Crystallographic axes

     site n.     atom                  positions (cryst. coord.)
         1           O   tau(   1) = (  0.6666670  0.3333337  0.0073459  )
         2           O   tau(   2) = (  0.3333329  0.6666657  0.5073458  )
         3           Zn  tau(   3) = (  0.6666664  0.3333329  0.5763542  )
         4           Zn  tau(   4) = (  0.3333336  0.6666677  1.0763542  )

     number of k points=   260
                       cart. coord. in units 2pi/alat
        k(    1) = (   0.0000000   0.0000000   0.0000000), wk =   0.0039062
        k(    2) = (  -0.0000000   0.0000000   0.0856336), wk =   0.0078125
        k(    3) = (  -0.0000000   0.0000000   0.1712671), wk =   0.0078125
        k(    4) = (  -0.0000000   0.0000001   0.2569007), wk =   0.0078125
        k(    5) = (   0.0000001  -0.0000001  -0.3425343), wk =   0.0039062
        k(    6) = (  -0.0000000   0.1443376   0.0000000), wk =   0.0078125
        k(    7) = (  -0.0000000   0.1443376   0.0856336), wk =   0.0078125
        k(    8) = (  -0.0000000   0.1443376   0.1712672), wk =   0.0078125
        k(    9) = (  -0.0000001   0.1443376   0.2569007), wk =   0.0078125
        k(   10) = (   0.0000000   0.1443375  -0.3425342), wk =   0.0078125
        k(   11) = (   0.0000000   0.1443375  -0.2569006), wk =   0.0078125
        k(   12) = (   0.0000000   0.1443375  -0.1712671), wk =   0.0078125
        k(   13) = (  -0.0000000   0.1443375  -0.0856335), wk =   0.0078125
        k(   14) = (  -0.0000000   0.2886751   0.0000001), wk =   0.0078125
        k(   15) = (  -0.0000001   0.2886752   0.0856336), wk =   0.0078125
        k(   16) = (  -0.0000001   0.2886752   0.1712672), wk =   0.0078125
        k(   17) = (  -0.0000001   0.2886752   0.2569008), wk =   0.0078125
        k(   18) = (   0.0000000   0.2886750  -0.3425342), wk =   0.0078125
        k(   19) = (   0.0000000   0.2886751  -0.2569006), wk =   0.0078125
        k(   20) = (  -0.0000000   0.2886751  -0.1712670), wk =   0.0078125
        k(   21) = (  -0.0000000   0.2886751  -0.0856335), wk =   0.0078125
        k(   22) = (  -0.0000001   0.4330127   0.0000001), wk =   0.0078125
        k(   23) = (  -0.0000001   0.4330127   0.0856337), wk =   0.0078125
        k(   24) = (  -0.0000001   0.4330128   0.1712672), wk =   0.0078125
        k(   25) = (  -0.0000001   0.4330128   0.2569008), wk =   0.0078125
        k(   26) = (   0.0000000   0.4330126  -0.3425341), wk =   0.0078125
        k(   27) = (  -0.0000000   0.4330126  -0.2569006), wk =   0.0078125
        k(   28) = (  -0.0000000   0.4330127  -0.1712670), wk =   0.0078125
        k(   29) = (  -0.0000000   0.4330127  -0.0856334), wk =   0.0078125
        k(   30) = (   0.0000001  -0.5773503  -0.0000002), wk =   0.0039062
        k(   31) = (   0.0000001  -0.5773503   0.0856334), wk =   0.0078125
        k(   32) = (   0.0000000  -0.5773502   0.1712670), wk =   0.0078125
        k(   33) = (   0.0000000  -0.5773502   0.2569005), wk =   0.0078125
        k(   34) = (   0.0000001  -0.5773504  -0.3425344), wk =   0.0039062
        k(   35) = (   0.1250000   0.0721688  -0.0000000), wk =   0.0078125
        k(   36) = (   0.1250000   0.0721688   0.0856336), wk =   0.0078125
        k(   37) = (   0.1250000   0.0721688   0.1712671), wk =   0.0078125
        k(   38) = (   0.1249999   0.0721688   0.2569007), wk =   0.0078125
        k(   39) = (   0.1250001   0.0721687  -0.3425343), wk =   0.0078125
        k(   40) = (   0.1250000   0.0721687  -0.2569007), wk =   0.0078125
        k(   41) = (   0.1250000   0.0721687  -0.1712671), wk =   0.0078125
        k(   42) = (   0.1250000   0.0721687  -0.0856336), wk =   0.0078125
        k(   43) = (   0.1250000   0.2165063   0.0000000), wk =   0.0078125
        k(   44) = (   0.1250000   0.2165064   0.0856336), wk =   0.0078125
        k(   45) = (   0.1249999   0.2165064   0.1712672), wk =   0.0078125
        k(   46) = (   0.1249999   0.2165064   0.2569007), wk =   0.0078125
        k(   47) = (   0.1250000   0.2165062  -0.3425342), wk =   0.0078125
        k(   48) = (   0.1250000   0.2165063  -0.2569007), wk =   0.0078125
        k(   49) = (   0.1250000   0.2165063  -0.1712671), wk =   0.0078125
        k(   50) = (   0.1250000   0.2165063  -0.0856335), wk =   0.0078125
        k(   51) = (   0.1250000   0.3608439   0.0000001), wk =   0.0078125
        k(   52) = (   0.1249999   0.3608439   0.0856336), wk =   0.0078125
        k(   53) = (   0.1249999   0.3608440   0.1712672), wk =   0.0078125
        k(   54) = (   0.1249999   0.3608440   0.2569008), wk =   0.0078125
        k(   55) = (   0.1250000   0.3608438  -0.3425342), wk =   0.0078125
        k(   56) = (   0.1250000   0.3608438  -0.2569006), wk =   0.0078125
        k(   57) = (   0.1250000   0.3608439  -0.1712670), wk =   0.0078125
        k(   58) = (   0.1250000   0.3608439  -0.0856335), wk =   0.0078125
        k(   59) = (   0.1249999   0.5051815   0.0000001), wk =   0.0078125
        k(   60) = (   0.1249999   0.5051815   0.0856337), wk =   0.0078125
        k(   61) = (   0.1249999   0.5051815   0.1712672), wk =   0.0078125
        k(   62) = (   0.1249999   0.5051815   0.2569008), wk =   0.0078125
        k(   63) = (   0.1250000   0.5051814  -0.3425341), wk =   0.0078125
        k(   64) = (   0.1250000   0.5051814  -0.2569006), wk =   0.0078125
        k(   65) = (   0.1250000   0.5051814  -0.1712670), wk =   0.0078125
        k(   66) = (   0.1249999   0.5051814  -0.0856334), wk =   0.0078125
        k(   67) = (   0.1250001  -0.5051815  -0.0000002), wk =   0.0078125
        k(   68) = (   0.1250001  -0.5051815   0.0856334), wk =   0.0078125
        k(   69) = (   0.1250000  -0.5051815   0.1712670), wk =   0.0078125
        k(   70) = (   0.1250000  -0.5051815   0.2569005), wk =   0.0078125
        k(   71) = (   0.1250001  -0.5051816  -0.3425344), wk =   0.0078125
        k(   72) = (   0.1250001  -0.5051816  -0.2569009), wk =   0.0078125
        k(   73) = (   0.1250001  -0.5051816  -0.1712673), wk =   0.0078125
        k(   74) = (   0.1250001  -0.5051815  -0.0856337), wk =   0.0078125
        k(   75) = (   0.1250000  -0.3608440  -0.0000001), wk =   0.0078125
        k(   76) = (   0.1250000  -0.3608439   0.0856334), wk =   0.0078125
        k(   77) = (   0.1250000  -0.3608439   0.1712670), wk =   0.0078125
        k(   78) = (   0.1250000  -0.3608439   0.2569006), wk =   0.0078125
        k(   79) = (   0.1250001  -0.3608440  -0.3425344), wk =   0.0078125
        k(   80) = (   0.1250001  -0.3608440  -0.2569008), wk =   0.0078125
        k(   81) = (   0.1250001  -0.3608440  -0.1712672), wk =   0.0078125
        k(   82) = (   0.1250001  -0.3608440  -0.0856337), wk =   0.0078125
        k(   83) = (   0.1250000  -0.2165064  -0.0000001), wk =   0.0078125
        k(   84) = (   0.1250000  -0.2165064   0.0856335), wk =   0.0078125
        k(   85) = (   0.1250000  -0.2165063   0.1712670), wk =   0.0078125
        k(   86) = (   0.1250000  -0.2165063   0.2569006), wk =   0.0078125
        k(   87) = (   0.1250001  -0.2165065  -0.3425343), wk =   0.0078125
        k(   88) = (   0.1250001  -0.2165065  -0.2569008), wk =   0.0078125
        k(   89) = (   0.1250001  -0.2165064  -0.1712672), wk =   0.0078125
        k(   90) = (   0.1250000  -0.2165064  -0.0856336), wk =   0.0078125
        k(   91) = (   0.1250000  -0.0721688  -0.0000000), wk =   0.0078125
        k(   92) = (   0.1250000  -0.0721688   0.0856335), wk =   0.0078125
        k(   93) = (   0.1250000  -0.0721688   0.1712671), wk =   0.0078125
        k(   94) = (   0.1250000  -0.0721687   0.2569006), wk =   0.0078125
        k(   95) = (   0.1250001  -0.0721689  -0.3425343), wk =   0.0078125
        k(   96) = (   0.1250001  -0.0721689  -0.2569007), wk =   0.0078125
        k(   97) = (   0.1250000  -0.0721689  -0.1712672), wk =   0.0078125
        k(   98) = (   0.1250000  -0.0721688  -0.0856336), wk =   0.0078125
        k(   99) = (   0.2500000   0.1443375  -0.0000000), wk =   0.0078125
        k(  100) = (   0.2500000   0.1443375   0.0856336), wk =   0.0078125
        k(  101) = (   0.2500000   0.1443376   0.1712671), wk =   0.0078125
        k(  102) = (   0.2499999   0.1443376   0.2569007), wk =   0.0078125
        k(  103) = (   0.2500000   0.1443374  -0.3425343), wk =   0.0078125
        k(  104) = (   0.2500000   0.1443374  -0.2569007), wk =   0.0078125
        k(  105) = (   0.2500000   0.1443375  -0.1712671), wk =   0.0078125
        k(  106) = (   0.2500000   0.1443375  -0.0856336), wk =   0.0078125
        k(  107) = (   0.2500000   0.2886751   0.0000000), wk =   0.0078125
        k(  108) = (   0.2499999   0.2886751   0.0856336), wk =   0.0078125
        k(  109) = (   0.2499999   0.2886751   0.1712672), wk =   0.0078125
        k(  110) = (   0.2499999   0.2886752   0.2569007), wk =   0.0078125
        k(  111) = (   0.2500000   0.2886750  -0.3425342), wk =   0.0078125
        k(  112) = (   0.2500000   0.2886750  -0.2569007), wk =   0.0078125
        k(  113) = (   0.2500000   0.2886750  -0.1712671), wk =   0.0078125
        k(  114) = (   0.2500000   0.2886751  -0.0856335), wk =   0.0078125
        k(  115) = (   0.2499999   0.4330127   0.0000001), wk =   0.0078125
        k(  116) = (   0.2499999   0.4330127   0.0856336), wk =   0.0078125
        k(  117) = (   0.2499999   0.4330127   0.1712672), wk =   0.0078125
        k(  118) = (   0.2499999   0.4330127   0.2569008), wk =   0.0078125
        k(  119) = (   0.2500000   0.4330126  -0.3425342), wk =   0.0078125
        k(  120) = (   0.2500000   0.4330126  -0.2569006), wk =   0.0078125
        k(  121) = (   0.2500000   0.4330126  -0.1712670), wk =   0.0078125
        k(  122) = (   0.2500000   0.4330126  -0.0856335), wk =   0.0078125
        k(  123) = (   0.2499999   0.5773502   0.0000001), wk =   0.0078125
        k(  124) = (   0.2499999   0.5773503   0.0856337), wk =   0.0078125
        k(  125) = (   0.2499999   0.5773503   0.1712672), wk =   0.0078125
        k(  126) = (   0.2499999   0.5773503   0.2569008), wk =   0.0078125
        k(  127) = (   0.2500000   0.5773501  -0.3425341), wk =   0.0078125
        k(  128) = (   0.2500000   0.5773502  -0.2569006), wk =   0.0078125
        k(  129) = (   0.2500000   0.5773502  -0.1712670), wk =   0.0078125
        k(  130) = (   0.2499999   0.5773502  -0.0856334), wk =   0.0078125
        k(  131) = (   0.2500001  -0.4330128  -0.0000002), wk =   0.0078125
        k(  132) = (   0.2500000  -0.4330127   0.0856334), wk =   0.0078125
        k(  133) = (   0.2500000  -0.4330127   0.1712670), wk =   0.0078125
        k(  134) = (   0.2500000  -0.4330127   0.2569005), wk =   0.0078125
        k(  135) = (   0.2500001  -0.4330129  -0.3425344), wk =   0.0078125
        k(  136) = (   0.2500001  -0.4330128  -0.2569009), wk =   0.0078125
        k(  137) = (   0.2500001  -0.4330128  -0.1712673), wk =   0.0078125
        k(  138) = (   0.2500001  -0.4330128  -0.0856337), wk =   0.0078125
        k(  139) = (   0.2500000  -0.2886752  -0.0000001), wk =   0.0078125
        k(  140) = (   0.2500000  -0.2886752   0.0856334), wk =   0.0078125
        k(  141) = (   0.2500000  -0.2886751   0.1712670), wk =   0.0078125
        k(  142) = (   0.2500000  -0.2886751   0.2569006), wk =   0.0078125
        k(  143) = (   0.2500001  -0.2886753  -0.3425344), wk =   0.0078125
        k(  144) = (   0.2500001  -0.2886753  -0.2569008), wk =   0.0078125
        k(  145) = (   0.2500001  -0.2886752  -0.1712673), wk =   0.0078125
        k(  146) = (   0.2500001  -0.2886752  -0.0856337), wk =   0.0078125
        k(  147) = (   0.2500000  -0.1443376  -0.0000001), wk =   0.0078125
        k(  148) = (   0.2500000  -0.1443376   0.0856335), wk =   0.0078125
        k(  149) = (   0.2500000  -0.1443376   0.1712670), wk =   0.0078125
        k(  150) = (   0.2500000  -0.1443376   0.2569006), wk =   0.0078125
        k(  151) = (   0.2500001  -0.1443377  -0.3425343), wk =   0.0078125
        k(  152) = (   0.2500001  -0.1443377  -0.2569008), wk =   0.0078125
        k(  153) = (   0.2500000  -0.1443377  -0.1712672), wk =   0.0078125
        k(  154) = (   0.2500000  -0.1443376  -0.0856336), wk =   0.0078125
        k(  155) = (   0.2500000  -0.0000001  -0.0000000), wk =   0.0078125
        k(  156) = (   0.2500000  -0.0000000   0.0856335), wk =   0.0078125
        k(  157) = (   0.2500000  -0.0000000   0.1712671), wk =   0.0078125
        k(  158) = (   0.2500000   0.0000000   0.2569006), wk =   0.0078125
        k(  159) = (   0.2500001  -0.0000001  -0.3425343), wk =   0.0078125
        k(  160) = (   0.2500000  -0.0000001  -0.2569007), wk =   0.0078125
        k(  161) = (   0.2500000  -0.0000001  -0.1712672), wk =   0.0078125
        k(  162) = (   0.2500000  -0.0000001  -0.0856336), wk =   0.0078125
        k(  163) = (   0.3750000   0.2165063  -0.0000000), wk =   0.0078125
        k(  164) = (   0.3750000   0.2165063   0.0856336), wk =   0.0078125
        k(  165) = (   0.3749999   0.2165063   0.1712671), wk =   0.0078125
        k(  166) = (   0.3749999   0.2165064   0.2569007), wk =   0.0078125
        k(  167) = (   0.3750000   0.2165062  -0.3425343), wk =   0.0078125
        k(  168) = (   0.3750000   0.2165062  -0.2569007), wk =   0.0078125
        k(  169) = (   0.3750000   0.2165062  -0.1712671), wk =   0.0078125
        k(  170) = (   0.3750000   0.2165063  -0.0856336), wk =   0.0078125
        k(  171) = (   0.3750000   0.3608439   0.0000000), wk =   0.0078125
        k(  172) = (   0.3749999   0.3608439   0.0856336), wk =   0.0078125
        k(  173) = (   0.3749999   0.3608439   0.1712672), wk =   0.0078125
        k(  174) = (   0.3749999   0.3608439   0.2569007), wk =   0.0078125
        k(  175) = (   0.3750000   0.3608438  -0.3425342), wk =   0.0078125
        k(  176) = (   0.3750000   0.3608438  -0.2569007), wk =   0.0078125
        k(  177) = (   0.3750000   0.3608438  -0.1712671), wk =   0.0078125
        k(  178) = (   0.3750000   0.3608438  -0.0856335), wk =   0.0078125
        k(  179) = (   0.3749999   0.5051814   0.0000001), wk =   0.0078125
        k(  180) = (   0.3749999   0.5051814   0.0856336), wk =   0.0078125
        k(  181) = (   0.3749999   0.5051815   0.1712672), wk =   0.0078125
        k(  182) = (   0.3749999   0.5051815   0.2569008), wk =   0.0078125
        k(  183) = (   0.3750000   0.5051813  -0.3425342), wk =   0.0078125
        k(  184) = (   0.3750000   0.5051814  -0.2569006), wk =   0.0078125
        k(  185) = (   0.3750000   0.5051814  -0.1712671), wk =   0.0078125
        k(  186) = (   0.3749999   0.5051814  -0.0856335), wk =   0.0078125
        k(  187) = (   0.3749999   0.6495190   0.0000001), wk =   0.0078125
        k(  188) = (   0.3749999   0.6495190   0.0856337), wk =   0.0078125
        k(  189) = (   0.3749999   0.6495190   0.1712672), wk =   0.0078125
        k(  190) = (   0.3749999   0.6495191   0.2569008), wk =   0.0078125
        k(  191) = (   0.3750000   0.6495189  -0.3425341), wk =   0.0078125
        k(  192) = (   0.3750000   0.6495189  -0.2569006), wk =   0.0078125
        k(  193) = (   0.3749999   0.6495189  -0.1712670), wk =   0.0078125
        k(  194) = (   0.3749999   0.6495190  -0.0856334), wk =   0.0078125
        k(  195) = (   0.3750000  -0.3608440  -0.0000002), wk =   0.0078125
        k(  196) = (   0.3750000  -0.3608440   0.0856334), wk =   0.0078125
        k(  197) = (   0.3750000  -0.3608440   0.1712670), wk =   0.0078125
        k(  198) = (   0.3750000  -0.3608439   0.2569005), wk =   0.0078125
        k(  199) = (   0.3750001  -0.3608441  -0.3425344), wk =   0.0078125
        k(  200) = (   0.3750001  -0.3608441  -0.2569009), wk =   0.0078125
        k(  201) = (   0.3750001  -0.3608441  -0.1712673), wk =   0.0078125
        k(  202) = (   0.3750001  -0.3608440  -0.0856337), wk =   0.0078125
        k(  203) = (   0.3750000  -0.2165064  -0.0000001), wk =   0.0078125
        k(  204) = (   0.3750000  -0.2165064   0.0856334), wk =   0.0078125
        k(  205) = (   0.3750000  -0.2165064   0.1712670), wk =   0.0078125
        k(  206) = (   0.3750000  -0.2165064   0.2569006), wk =   0.0078125
        k(  207) = (   0.3750001  -0.2165065  -0.3425344), wk =   0.0078125
        k(  208) = (   0.3750001  -0.2165065  -0.2569008), wk =   0.0078125
        k(  209) = (   0.3750001  -0.2165065  -0.1712673), wk =   0.0078125
        k(  210) = (   0.3750000  -0.2165065  -0.0856337), wk =   0.0078125
        k(  211) = (   0.3750000  -0.0721689  -0.0000001), wk =   0.0078125
        k(  212) = (   0.3750000  -0.0721688   0.0856335), wk =   0.0078125
        k(  213) = (   0.3750000  -0.0721688   0.1712670), wk =   0.0078125
        k(  214) = (   0.3750000  -0.0721688   0.2569006), wk =   0.0078125
        k(  215) = (   0.3750001  -0.0721690  -0.3425343), wk =   0.0078125
        k(  216) = (   0.3750001  -0.0721689  -0.2569008), wk =   0.0078125
        k(  217) = (   0.3750000  -0.0721689  -0.1712672), wk =   0.0078125
        k(  218) = (   0.3750000  -0.0721689  -0.0856337), wk =   0.0078125
        k(  219) = (   0.3750000   0.0721687  -0.0000000), wk =   0.0078125
        k(  220) = (   0.3750000   0.0721687   0.0856335), wk =   0.0078125
        k(  221) = (   0.3750000   0.0721688   0.1712671), wk =   0.0078125
        k(  222) = (   0.3749999   0.0721688   0.2569006), wk =   0.0078125
        k(  223) = (   0.3750001   0.0721686  -0.3425343), wk =   0.0078125
        k(  224) = (   0.3750000   0.0721686  -0.2569007), wk =   0.0078125
        k(  225) = (   0.3750000   0.0721687  -0.1712672), wk =   0.0078125
        k(  226) = (   0.3750000   0.0721687  -0.0856336), wk =   0.0078125
        k(  227) = (  -0.5000000  -0.2886750   0.0000000), wk =   0.0039062
        k(  228) = (  -0.5000000  -0.2886750   0.0856336), wk =   0.0078125
        k(  229) = (  -0.5000000  -0.2886750   0.1712671), wk =   0.0078125
        k(  230) = (  -0.5000000  -0.2886750   0.2569007), wk =   0.0078125
        k(  231) = (  -0.4999999  -0.2886751  -0.3425342), wk =   0.0039062
        k(  232) = (  -0.5000000  -0.1443375   0.0000000), wk =   0.0078125
        k(  233) = (  -0.5000000  -0.1443374   0.0856336), wk =   0.0078125
        k(  234) = (  -0.5000000  -0.1443374   0.1712672), wk =   0.0078125
        k(  235) = (  -0.5000000  -0.1443374   0.2569007), wk =   0.0078125
        k(  236) = (  -0.4999999  -0.1443376  -0.3425342), wk =   0.0078125
        k(  237) = (  -0.4999999  -0.1443375  -0.2569006), wk =   0.0078125
        k(  238) = (  -0.5000000  -0.1443375  -0.1712671), wk =   0.0078125
        k(  239) = (  -0.5000000  -0.1443375  -0.0856335), wk =   0.0078125
        k(  240) = (  -0.5000000   0.0000001   0.0000001), wk =   0.0078125
        k(  241) = (  -0.5000000   0.0000001   0.0856337), wk =   0.0078125
        k(  242) = (  -0.5000000   0.0000001   0.1712672), wk =   0.0078125
        k(  243) = (  -0.5000000   0.0000002   0.2569008), wk =   0.0078125
        k(  244) = (  -0.4999999   0.0000000  -0.3425342), wk =   0.0078125
        k(  245) = (  -0.5000000   0.0000000  -0.2569006), wk =   0.0078125
        k(  246) = (  -0.5000000   0.0000001  -0.1712670), wk =   0.0078125
        k(  247) = (  -0.5000000   0.0000001  -0.0856335), wk =   0.0078125
        k(  248) = (  -0.5000000   0.1443377   0.0000001), wk =   0.0078125
        k(  249) = (  -0.5000000   0.1443377   0.0856337), wk =   0.0078125
        k(  250) = (  -0.5000000   0.1443377   0.1712673), wk =   0.0078125
        k(  251) = (  -0.5000001   0.1443377   0.2569008), wk =   0.0078125
        k(  252) = (  -0.5000000   0.1443376  -0.3425341), wk =   0.0078125
        k(  253) = (  -0.5000000   0.1443376  -0.2569006), wk =   0.0078125
        k(  254) = (  -0.5000000   0.1443376  -0.1712670), wk =   0.0078125
        k(  255) = (  -0.5000000   0.1443376  -0.0856334), wk =   0.0078125
        k(  256) = (  -0.4999999  -0.8660253  -0.0000002), wk =   0.0039062
        k(  257) = (  -0.4999999  -0.8660253   0.0856334), wk =   0.0078125
        k(  258) = (  -0.4999999  -0.8660253   0.1712670), wk =   0.0078125
        k(  259) = (  -0.4999999  -0.8660253   0.2569005), wk =   0.0078125
        k(  260) = (  -0.4999998  -0.8660254  -0.3425344), wk =   0.0039062

                       cryst. coord.
        k(    1) = (   0.0000000   0.0000000   0.0000000), wk =   0.0039062
        k(    2) = (  -0.0000000   0.0000000   0.1250000), wk =   0.0078125
        k(    3) = (  -0.0000000   0.0000000   0.2500000), wk =   0.0078125
        k(    4) = (   0.0000000  -0.0000000   0.3750000), wk =   0.0078125
        k(    5) = (   0.0000000  -0.0000000  -0.5000000), wk =   0.0039062
        k(    6) = (   0.0000000   0.1250000  -0.0000000), wk =   0.0078125
        k(    7) = (   0.0000000   0.1250000   0.1250000), wk =   0.0078125
        k(    8) = (   0.0000000   0.1250000   0.2500000), wk =   0.0078125
        k(    9) = (   0.0000000   0.1250000   0.3750000), wk =   0.0078125
        k(   10) = (   0.0000000   0.1250000  -0.5000000), wk =   0.0078125
        k(   11) = (   0.0000000   0.1250000  -0.3750000), wk =   0.0078125
        k(   12) = (  -0.0000000   0.1250000  -0.2500000), wk =   0.0078125
        k(   13) = (   0.0000000   0.1250000  -0.1250000), wk =   0.0078125
        k(   14) = (   0.0000000   0.2500000  -0.0000000), wk =   0.0078125
        k(   15) = (   0.0000000   0.2500000   0.1250000), wk =   0.0078125
        k(   16) = (   0.0000000   0.2500000   0.2500000), wk =   0.0078125
        k(   17) = (   0.0000000   0.2500000   0.3750000), wk =   0.0078125
        k(   18) = (  -0.0000000   0.2500000  -0.5000000), wk =   0.0078125
        k(   19) = (   0.0000000   0.2500000  -0.3750000), wk =   0.0078125
        k(   20) = (   0.0000000   0.2500000  -0.2500000), wk =   0.0078125
        k(   21) = (  -0.0000000   0.2500000  -0.1250000), wk =   0.0078125
        k(   22) = (   0.0000000   0.3750000  -0.0000000), wk =   0.0078125
        k(   23) = (   0.0000000   0.3750000   0.1250000), wk =   0.0078125
        k(   24) = (  -0.0000000   0.3750000   0.2500000), wk =   0.0078125
        k(   25) = (   0.0000000   0.3750000   0.3750000), wk =   0.0078125
        k(   26) = (   0.0000000   0.3750000  -0.5000000), wk =   0.0078125
        k(   27) = (   0.0000000   0.3750000  -0.3750000), wk =   0.0078125
        k(   28) = (   0.0000000   0.3750000  -0.2500000), wk =   0.0078125
        k(   29) = (   0.0000000   0.3750000  -0.1250000), wk =   0.0078125
        k(   30) = (  -0.0000000  -0.5000000   0.0000000), wk =   0.0039062
        k(   31) = (  -0.0000000  -0.5000000   0.1250000), wk =   0.0078125
        k(   32) = (   0.0000000  -0.5000000   0.2500000), wk =   0.0078125
        k(   33) = (  -0.0000000  -0.5000000   0.3750000), wk =   0.0078125
        k(   34) = (  -0.0000000  -0.5000000  -0.5000000), wk =   0.0039062
        k(   35) = (   0.1250000  -0.0000000   0.0000000), wk =   0.0078125
        k(   36) = (   0.1250000  -0.0000000   0.1250000), wk =   0.0078125
        k(   37) = (   0.1250000  -0.0000000   0.2500000), wk =   0.0078125
        k(   38) = (   0.1250000  -0.0000000   0.3750000), wk =   0.0078125
        k(   39) = (   0.1250000  -0.0000000  -0.5000000), wk =   0.0078125
        k(   40) = (   0.1250000  -0.0000000  -0.3750000), wk =   0.0078125
        k(   41) = (   0.1250000  -0.0000000  -0.2500000), wk =   0.0078125
        k(   42) = (   0.1250000  -0.0000000  -0.1250000), wk =   0.0078125
        k(   43) = (   0.1250000   0.1250000  -0.0000000), wk =   0.0078125
        k(   44) = (   0.1250000   0.1250000   0.1250000), wk =   0.0078125
        k(   45) = (   0.1250000   0.1250000   0.2500000), wk =   0.0078125
        k(   46) = (   0.1250000   0.1250000   0.3750000), wk =   0.0078125
        k(   47) = (   0.1250000   0.1250000  -0.5000000), wk =   0.0078125
        k(   48) = (   0.1250000   0.1250000  -0.3750000), wk =   0.0078125
        k(   49) = (   0.1250000   0.1250000  -0.2500000), wk =   0.0078125
        k(   50) = (   0.1250000   0.1250000  -0.1250000), wk =   0.0078125
        k(   51) = (   0.1250000   0.2500000  -0.0000000), wk =   0.0078125
        k(   52) = (   0.1250000   0.2500000   0.1250000), wk =   0.0078125
        k(   53) = (   0.1250000   0.2500000   0.2500000), wk =   0.0078125
        k(   54) = (   0.1250000   0.2500000   0.3750000), wk =   0.0078125
        k(   55) = (   0.1250000   0.2500000  -0.5000000), wk =   0.0078125
        k(   56) = (   0.1250000   0.2500000  -0.3750000), wk =   0.0078125
        k(   57) = (   0.1250000   0.2500000  -0.2500000), wk =   0.0078125
        k(   58) = (   0.1250000   0.2500000  -0.1250000), wk =   0.0078125
        k(   59) = (   0.1250000   0.3750000   0.0000000), wk =   0.0078125
        k(   60) = (   0.1250000   0.3750000   0.1250000), wk =   0.0078125
        k(   61) = (   0.1250000   0.3750000   0.2500000), wk =   0.0078125
        k(   62) = (   0.1250000   0.3750000   0.3750000), wk =   0.0078125
        k(   63) = (   0.1250000   0.3750000  -0.5000000), wk =   0.0078125
        k(   64) = (   0.1250000   0.3750000  -0.3750000), wk =   0.0078125
        k(   65) = (   0.1250000   0.3750000  -0.2500000), wk =   0.0078125
        k(   66) = (   0.1250000   0.3750000  -0.1250000), wk =   0.0078125
        k(   67) = (   0.1250000  -0.5000000   0.0000000), wk =   0.0078125
        k(   68) = (   0.1250000  -0.5000000   0.1250000), wk =   0.0078125
        k(   69) = (   0.1250000  -0.5000000   0.2500000), wk =   0.0078125
        k(   70) = (   0.1250000  -0.5000000   0.3750000), wk =   0.0078125
        k(   71) = (   0.1250000  -0.5000000  -0.5000000), wk =   0.0078125
        k(   72) = (   0.1250000  -0.5000000  -0.3750000), wk =   0.0078125
        k(   73) = (   0.1250000  -0.5000000  -0.2500000), wk =   0.0078125
        k(   74) = (   0.1250000  -0.5000000  -0.1250000), wk =   0.0078125
        k(   75) = (   0.1250000  -0.3750000   0.0000000), wk =   0.0078125
        k(   76) = (   0.1250000  -0.3750000   0.1250000), wk =   0.0078125
        k(   77) = (   0.1250000  -0.3750000   0.2500000), wk =   0.0078125
        k(   78) = (   0.1250000  -0.3750000   0.3750000), wk =   0.0078125
        k(   79) = (   0.1250000  -0.3750000  -0.5000000), wk =   0.0078125
        k(   80) = (   0.1250000  -0.3750000  -0.3750000), wk =   0.0078125
        k(   81) = (   0.1250000  -0.3750000  -0.2500000), wk =   0.0078125
        k(   82) = (   0.1250000  -0.3750000  -0.1250000), wk =   0.0078125
        k(   83) = (   0.1250000  -0.2500000   0.0000000), wk =   0.0078125
        k(   84) = (   0.1250000  -0.2500000   0.1250000), wk =   0.0078125
        k(   85) = (   0.1250000  -0.2500000   0.2500000), wk =   0.0078125
        k(   86) = (   0.1250000  -0.2500000   0.3750000), wk =   0.0078125
        k(   87) = (   0.1250000  -0.2500000  -0.5000000), wk =   0.0078125
        k(   88) = (   0.1250000  -0.2500000  -0.3750000), wk =   0.0078125
        k(   89) = (   0.1250000  -0.2500000  -0.2500000), wk =   0.0078125
        k(   90) = (   0.1250000  -0.2500000  -0.1250000), wk =   0.0078125
        k(   91) = (   0.1250000  -0.1250000   0.0000000), wk =   0.0078125
        k(   92) = (   0.1250000  -0.1250000   0.1250000), wk =   0.0078125
        k(   93) = (   0.1250000  -0.1250000   0.2500000), wk =   0.0078125
        k(   94) = (   0.1250000  -0.1250000   0.3750000), wk =   0.0078125
        k(   95) = (   0.1250000  -0.1250000  -0.5000000), wk =   0.0078125
        k(   96) = (   0.1250000  -0.1250000  -0.3750000), wk =   0.0078125
        k(   97) = (   0.1250000  -0.1250000  -0.2500000), wk =   0.0078125
        k(   98) = (   0.1250000  -0.1250000  -0.1250000), wk =   0.0078125
        k(   99) = (   0.2500000  -0.0000000   0.0000000), wk =   0.0078125
        k(  100) = (   0.2500000  -0.0000000   0.1250000), wk =   0.0078125
        k(  101) = (   0.2500000  -0.0000000   0.2500000), wk =   0.0078125
        k(  102) = (   0.2500000  -0.0000000   0.3750000), wk =   0.0078125
        k(  103) = (   0.2500000  -0.0000000  -0.5000000), wk =   0.0078125
        k(  104) = (   0.2500000  -0.0000000  -0.3750000), wk =   0.0078125
        k(  105) = (   0.2500000  -0.0000000  -0.2500000), wk =   0.0078125
        k(  106) = (   0.2500000  -0.0000000  -0.1250000), wk =   0.0078125
        k(  107) = (   0.2500000   0.1250000   0.0000000), wk =   0.0078125
        k(  108) = (   0.2500000   0.1250000   0.1250000), wk =   0.0078125
        k(  109) = (   0.2500000   0.1250000   0.2500000), wk =   0.0078125
        k(  110) = (   0.2500000   0.1250000   0.3750000), wk =   0.0078125
        k(  111) = (   0.2500000   0.1250000  -0.5000000), wk =   0.0078125
        k(  112) = (   0.2500000   0.1250000  -0.3750000), wk =   0.0078125
        k(  113) = (   0.2500000   0.1250000  -0.2500000), wk =   0.0078125
        k(  114) = (   0.2500000   0.1250000  -0.1250000), wk =   0.0078125
        k(  115) = (   0.2500000   0.2500000  -0.0000000), wk =   0.0078125
        k(  116) = (   0.2500000   0.2500000   0.1250000), wk =   0.0078125
        k(  117) = (   0.2500000   0.2500000   0.2500000), wk =   0.0078125
        k(  118) = (   0.2500000   0.2500000   0.3750000), wk =   0.0078125
        k(  119) = (   0.2500000   0.2500000  -0.5000000), wk =   0.0078125
        k(  120) = (   0.2500000   0.2500000  -0.3750000), wk =   0.0078125
        k(  121) = (   0.2500000   0.2500000  -0.2500000), wk =   0.0078125
        k(  122) = (   0.2500000   0.2500000  -0.1250000), wk =   0.0078125
        k(  123) = (   0.2500000   0.3750000  -0.0000000), wk =   0.0078125
        k(  124) = (   0.2500000   0.3750000   0.1250000), wk =   0.0078125
        k(  125) = (   0.2500000   0.3750000   0.2500000), wk =   0.0078125
        k(  126) = (   0.2500000   0.3750000   0.3750000), wk =   0.0078125
        k(  127) = (   0.2500000   0.3750000  -0.5000000), wk =   0.0078125
        k(  128) = (   0.2500000   0.3750000  -0.3750000), wk =   0.0078125
        k(  129) = (   0.2500000   0.3750000  -0.2500000), wk =   0.0078125
        k(  130) = (   0.2500000   0.3750000  -0.1250000), wk =   0.0078125
        k(  131) = (   0.2500000  -0.5000000   0.0000000), wk =   0.0078125
        k(  132) = (   0.2500000  -0.5000000   0.1250000), wk =   0.0078125
        k(  133) = (   0.2500000  -0.5000000   0.2500000), wk =   0.0078125
        k(  134) = (   0.2500000  -0.5000000   0.3750000), wk =   0.0078125
        k(  135) = (   0.2500000  -0.5000000  -0.5000000), wk =   0.0078125
        k(  136) = (   0.2500000  -0.5000000  -0.3750000), wk =   0.0078125
        k(  137) = (   0.2500000  -0.5000000  -0.2500000), wk =   0.0078125
        k(  138) = (   0.2500000  -0.5000000  -0.1250000), wk =   0.0078125
        k(  139) = (   0.2500000  -0.3750000   0.0000000), wk =   0.0078125
        k(  140) = (   0.2500000  -0.3750000   0.1250000), wk =   0.0078125
        k(  141) = (   0.2500000  -0.3750000   0.2500000), wk =   0.0078125
        k(  142) = (   0.2500000  -0.3750000   0.3750000), wk =   0.0078125
        k(  143) = (   0.2500000  -0.3750000  -0.5000000), wk =   0.0078125
        k(  144) = (   0.2500000  -0.3750000  -0.3750000), wk =   0.0078125
        k(  145) = (   0.2500000  -0.3750000  -0.2500000), wk =   0.0078125
        k(  146) = (   0.2500000  -0.3750000  -0.1250000), wk =   0.0078125
        k(  147) = (   0.2500000  -0.2500000   0.0000000), wk =   0.0078125
        k(  148) = (   0.2500000  -0.2500000   0.1250000), wk =   0.0078125
        k(  149) = (   0.2500000  -0.2500000   0.2500000), wk =   0.0078125
        k(  150) = (   0.2500000  -0.2500000   0.3750000), wk =   0.0078125
        k(  151) = (   0.2500000  -0.2500000  -0.5000000), wk =   0.0078125
        k(  152) = (   0.2500000  -0.2500000  -0.3750000), wk =   0.0078125
        k(  153) = (   0.2500000  -0.2500000  -0.2500000), wk =   0.0078125
        k(  154) = (   0.2500000  -0.2500000  -0.1250000), wk =   0.0078125
        k(  155) = (   0.2500000  -0.1250000   0.0000000), wk =   0.0078125
        k(  156) = (   0.2500000  -0.1250000   0.1250000), wk =   0.0078125
        k(  157) = (   0.2500000  -0.1250000   0.2500000), wk =   0.0078125
        k(  158) = (   0.2500000  -0.1250000   0.3750000), wk =   0.0078125
        k(  159) = (   0.2500000  -0.1250000  -0.5000000), wk =   0.0078125
        k(  160) = (   0.2500000  -0.1250000  -0.3750000), wk =   0.0078125
        k(  161) = (   0.2500000  -0.1250000  -0.2500000), wk =   0.0078125
        k(  162) = (   0.2500000  -0.1250000  -0.1250000), wk =   0.0078125
        k(  163) = (   0.3750000  -0.0000000   0.0000000), wk =   0.0078125
        k(  164) = (   0.3750000  -0.0000000   0.1250000), wk =   0.0078125
        k(  165) = (   0.3750000   0.0000000   0.2500000), wk =   0.0078125
        k(  166) = (   0.3750000  -0.0000000   0.3750000), wk =   0.0078125
        k(  167) = (   0.3750000  -0.0000000  -0.5000000), wk =   0.0078125
        k(  168) = (   0.3750000  -0.0000000  -0.3750000), wk =   0.0078125
        k(  169) = (   0.3750000  -0.0000000  -0.2500000), wk =   0.0078125
        k(  170) = (   0.3750000  -0.0000000  -0.1250000), wk =   0.0078125
        k(  171) = (   0.3750000   0.1250000   0.0000000), wk =   0.0078125
        k(  172) = (   0.3750000   0.1250000   0.1250000), wk =   0.0078125
        k(  173) = (   0.3750000   0.1250000   0.2500000), wk =   0.0078125
        k(  174) = (   0.3750000   0.1250000   0.3750000), wk =   0.0078125
        k(  175) = (   0.3750000   0.1250000  -0.5000000), wk =   0.0078125
        k(  176) = (   0.3750000   0.1250000  -0.3750000), wk =   0.0078125
        k(  177) = (   0.3750000   0.1250000  -0.2500000), wk =   0.0078125
        k(  178) = (   0.3750000   0.1250000  -0.1250000), wk =   0.0078125
        k(  179) = (   0.3750000   0.2500000   0.0000000), wk =   0.0078125
        k(  180) = (   0.3750000   0.2500000   0.1250000), wk =   0.0078125
        k(  181) = (   0.3750000   0.2500000   0.2500000), wk =   0.0078125
        k(  182) = (   0.3750000   0.2500000   0.3750000), wk =   0.0078125
        k(  183) = (   0.3750000   0.2500000  -0.5000000), wk =   0.0078125
        k(  184) = (   0.3750000   0.2500000  -0.3750000), wk =   0.0078125
        k(  185) = (   0.3750000   0.2500000  -0.2500000), wk =   0.0078125
        k(  186) = (   0.3750000   0.2500000  -0.1250000), wk =   0.0078125
        k(  187) = (   0.3750000   0.3750000  -0.0000000), wk =   0.0078125
        k(  188) = (   0.3750000   0.3750000   0.1250000), wk =   0.0078125
        k(  189) = (   0.3750000   0.3750000   0.2500000), wk =   0.0078125
        k(  190) = (   0.3750000   0.3750000   0.3750000), wk =   0.0078125
        k(  191) = (   0.3750000   0.3750000  -0.5000000), wk =   0.0078125
        k(  192) = (   0.3750000   0.3750000  -0.3750000), wk =   0.0078125
        k(  193) = (   0.3750000   0.3750000  -0.2500000), wk =   0.0078125
        k(  194) = (   0.3750000   0.3750000  -0.1250000), wk =   0.0078125
        k(  195) = (   0.3750000  -0.5000000   0.0000000), wk =   0.0078125
        k(  196) = (   0.3750000  -0.5000000   0.1250000), wk =   0.0078125
        k(  197) = (   0.3750000  -0.5000000   0.2500000), wk =   0.0078125
        k(  198) = (   0.3750000  -0.5000000   0.3750000), wk =   0.0078125
        k(  199) = (   0.3750000  -0.5000000  -0.5000000), wk =   0.0078125
        k(  200) = (   0.3750000  -0.5000000  -0.3750000), wk =   0.0078125
        k(  201) = (   0.3750000  -0.5000000  -0.2500000), wk =   0.0078125
        k(  202) = (   0.3750000  -0.5000000  -0.1250000), wk =   0.0078125
        k(  203) = (   0.3750000  -0.3750000   0.0000000), wk =   0.0078125
        k(  204) = (   0.3750000  -0.3750000   0.1250000), wk =   0.0078125
        k(  205) = (   0.3750000  -0.3750000   0.2500000), wk =   0.0078125
        k(  206) = (   0.3750000  -0.3750000   0.3750000), wk =   0.0078125
        k(  207) = (   0.3750000  -0.3750000  -0.5000000), wk =   0.0078125
        k(  208) = (   0.3750000  -0.3750000  -0.3750000), wk =   0.0078125
        k(  209) = (   0.3750000  -0.3750000  -0.2500000), wk =   0.0078125
        k(  210) = (   0.3750000  -0.3750000  -0.1250000), wk =   0.0078125
        k(  211) = (   0.3750000  -0.2500000   0.0000000), wk =   0.0078125
        k(  212) = (   0.3750000  -0.2500000   0.1250000), wk =   0.0078125
        k(  213) = (   0.3750000  -0.2500000   0.2500000), wk =   0.0078125
        k(  214) = (   0.3750000  -0.2500000   0.3750000), wk =   0.0078125
        k(  215) = (   0.3750000  -0.2500000  -0.5000000), wk =   0.0078125
        k(  216) = (   0.3750000  -0.2500000  -0.3750000), wk =   0.0078125
        k(  217) = (   0.3750000  -0.2500000  -0.2500000), wk =   0.0078125
        k(  218) = (   0.3750000  -0.2500000  -0.1250000), wk =   0.0078125
        k(  219) = (   0.3750000  -0.1250000   0.0000000), wk =   0.0078125
        k(  220) = (   0.3750000  -0.1250000   0.1250000), wk =   0.0078125
        k(  221) = (   0.3750000  -0.1250000   0.2500000), wk =   0.0078125
        k(  222) = (   0.3750000  -0.1250000   0.3750000), wk =   0.0078125
        k(  223) = (   0.3750000  -0.1250000  -0.5000000), wk =   0.0078125
        k(  224) = (   0.3750000  -0.1250000  -0.3750000), wk =   0.0078125
        k(  225) = (   0.3750000  -0.1250000  -0.2500000), wk =   0.0078125
        k(  226) = (   0.3750000  -0.1250000  -0.1250000), wk =   0.0078125
        k(  227) = (  -0.5000000   0.0000000  -0.0000000), wk =   0.0039062
        k(  228) = (  -0.5000000   0.0000000   0.1250000), wk =   0.0078125
        k(  229) = (  -0.5000000   0.0000000   0.2500000), wk =   0.0078125
        k(  230) = (  -0.5000000   0.0000000   0.3750000), wk =   0.0078125
        k(  231) = (  -0.5000000   0.0000000  -0.5000000), wk =   0.0039062
        k(  232) = (  -0.5000000   0.1250000  -0.0000000), wk =   0.0078125
        k(  233) = (  -0.5000000   0.1250000   0.1250000), wk =   0.0078125
        k(  234) = (  -0.5000000   0.1250000   0.2500000), wk =   0.0078125
        k(  235) = (  -0.5000000   0.1250000   0.3750000), wk =   0.0078125
        k(  236) = (  -0.5000000   0.1250000  -0.5000000), wk =   0.0078125
        k(  237) = (  -0.5000000   0.1250000  -0.3750000), wk =   0.0078125
        k(  238) = (  -0.5000000   0.1250000  -0.2500000), wk =   0.0078125
        k(  239) = (  -0.5000000   0.1250000  -0.1250000), wk =   0.0078125
        k(  240) = (  -0.5000000   0.2500000  -0.0000000), wk =   0.0078125
        k(  241) = (  -0.5000000   0.2500000   0.1250000), wk =   0.0078125
        k(  242) = (  -0.5000000   0.2500000   0.2500000), wk =   0.0078125
        k(  243) = (  -0.5000000   0.2500000   0.3750000), wk =   0.0078125
        k(  244) = (  -0.5000000   0.2500000  -0.5000000), wk =   0.0078125
        k(  245) = (  -0.5000000   0.2500000  -0.3750000), wk =   0.0078125
        k(  246) = (  -0.5000000   0.2500000  -0.2500000), wk =   0.0078125
        k(  247) = (  -0.5000000   0.2500000  -0.1250000), wk =   0.0078125
        k(  248) = (  -0.5000000   0.3750000  -0.0000000), wk =   0.0078125
        k(  249) = (  -0.5000000   0.3750000   0.1250000), wk =   0.0078125
        k(  250) = (  -0.5000000   0.3750000   0.2500000), wk =   0.0078125
        k(  251) = (  -0.5000000   0.3750000   0.3750000), wk =   0.0078125
        k(  252) = (  -0.5000000   0.3750000  -0.5000000), wk =   0.0078125
        k(  253) = (  -0.5000000   0.3750000  -0.3750000), wk =   0.0078125
        k(  254) = (  -0.5000000   0.3750000  -0.2500000), wk =   0.0078125
        k(  255) = (  -0.5000000   0.3750000  -0.1250000), wk =   0.0078125
        k(  256) = (  -0.5000000  -0.5000000   0.0000000), wk =   0.0039062
        k(  257) = (  -0.5000000  -0.5000000   0.1250000), wk =   0.0078125
        k(  258) = (  -0.5000000  -0.5000000   0.2500000), wk =   0.0078125
        k(  259) = (  -0.5000000  -0.5000000   0.3750000), wk =   0.0078125
        k(  260) = (  -0.5000000  -0.5000000  -0.5000000), wk =   0.0039062

     Dense  grid:    78185 G-vectors     FFT dimensions: (  50,  50,  72)

     Smooth grid:    30347 G-vectors     FFT dimensions: (  36,  36,  54)

     Dynamical RAM for                 wfc:       0.09 MB

     Dynamical RAM for     wfc (w. buffer):       6.21 MB

     Dynamical RAM for           str. fact:       0.15 MB

     Dynamical RAM for           local pot:       0.00 MB

     Dynamical RAM for          nlocal pot:       0.22 MB

     Dynamical RAM for                qrad:       3.93 MB

     Dynamical RAM for          rho,v,vnew:       0.51 MB

     Dynamical RAM for               rhoin:       0.17 MB

     Dynamical RAM for            rho*nmix:       1.19 MB

     Dynamical RAM for           G-vectors:       0.29 MB

     Dynamical RAM for          h,s,v(r/c):       0.12 MB

     Dynamical RAM for          <psi|beta>:       0.02 MB

     Dynamical RAM for                 psi:       0.38 MB

     Dynamical RAM for                hpsi:       0.38 MB

     Dynamical RAM for                spsi:       0.38 MB

     Dynamical RAM for      wfcinit/wfcrot:       0.27 MB

     Dynamical RAM for           addusdens:       3.56 MB

     Dynamical RAM for          addusforce:       3.70 MB

     Dynamical RAM for         addusstress:       3.77 MB

     Estimated static dynamical RAM per process >      13.38 MB

     Estimated max dynamical RAM per process >      17.15 MB

     Estimated total dynamical RAM >       1.07 GB

     Check: negative core charge=   -0.000003

     Initial potential from superposition of free atoms

     starting charge   51.99974, renormalised to   52.00000
     Starting wfcs are   34 randomized atomic wfcs

     total cpu time spent up to now is        1.1 secs

     Self-consistent Calculation

     iteration #  1     ecut=    80.00 Ry     beta= 0.50
     Davidson diagonalization with overlap
     ethr =  1.00E-02,  avg # of iterations =  1.0

     total cpu time spent up to now is        1.9 secs

     total energy              =    -986.75874262 Ry
     Harris-Foulkes estimate   =    -987.28094661 Ry
     estimated scf accuracy    <       0.82101792 Ry

     iteration #  2     ecut=    80.00 Ry     beta= 0.50
     Davidson diagonalization with overlap
     ethr =  1.58E-03,  avg # of iterations =  3.0

     total cpu time spent up to now is        3.2 secs

     total energy              =    -987.00068654 Ry
     Harris-Foulkes estimate   =    -987.16803732 Ry
     estimated scf accuracy    <       0.38595949 Ry

     iteration #  3     ecut=    80.00 Ry     beta= 0.50
     Davidson diagonalization with overlap
     ethr =  7.42E-04,  avg # of iterations =  2.1

     total cpu time spent up to now is        4.3 secs

     total energy              =    -987.07013719 Ry
     Harris-Foulkes estimate   =    -987.07242778 Ry
     estimated scf accuracy    <       0.00685264 Ry

     iteration #  4     ecut=    80.00 Ry     beta= 0.50
     Davidson diagonalization with overlap
     ethr =  1.32E-05,  avg # of iterations =  2.0

     total cpu time spent up to now is        5.3 secs

     total energy              =    -987.07072384 Ry
     Harris-Foulkes estimate   =    -987.07117361 Ry
     estimated scf accuracy    <       0.00153198 Ry

     iteration #  5     ecut=    80.00 Ry     beta= 0.50
     Davidson diagonalization with overlap
     ethr =  2.95E-06,  avg # of iterations =  2.0

     total cpu time spent up to now is        6.4 secs

     total energy              =    -987.07088295 Ry
     Harris-Foulkes estimate   =    -987.07089205 Ry
     estimated scf accuracy    <       0.00001791 Ry

     iteration #  6     ecut=    80.00 Ry     beta= 0.50
     Davidson diagonalization with overlap
     ethr =  3.44E-08,  avg # of iterations =  2.0

     total cpu time spent up to now is        7.5 secs

     total energy              =    -987.07088603 Ry
     Harris-Foulkes estimate   =    -987.07088527 Ry
     estimated scf accuracy    <       0.00000348 Ry

     iteration #  7     ecut=    80.00 Ry     beta= 0.50
     Davidson diagonalization with overlap
     ethr =  6.69E-09,  avg # of iterations =  2.0

     total cpu time spent up to now is        8.5 secs

     End of self-consistent calculation

          k = 0.0000 0.0000 0.0000 (  3741 PWs)   bands (ev):

  -114.1571-114.1567 -68.5486 -68.5438 -68.5004 -68.5004 -68.4993 -68.4993
    -9.0888  -8.1483   3.0876   3.0876   3.1101   3.1101   3.6874   3.8567
     4.3530   4.3530   4.6412   4.6412   5.0268   8.2613   8.2613   8.5020
     8.9452   8.9452

     occupation numbers 
     1.0000   1.0000   1.0000   1.0000   1.0000   1.0000   1.0000   1.0000
     1.0000   1.0000   1.0000   1.0000   1.0000   1.0000   1.0000   1.0000
     1.0000   1.0000   1.0000   1.0000   1.0000   1.0000   1.0000   1.0000
     1.0000   1.0000

          k =-0.0000 0.0000 0.0856 (  3746 PWs)   bands (ev):

  -114.1571-114.1567 -68.5484 -68.5440 -68.5004 -68.5004 -68.4993 -68.4993
    -9.0545  -8.1853   3.0822   3.0822   3.1035   3.1035   3.5721   3.8002
     4.3703   4.3703   4.6362   4.6362   5.2437   8.2020   8.2897   8.2897
     8.9222   8.9222

     occupation numbers 
     1.0000   1.0000   1.0000   1.0000   1.0000   1.0000   1.0000   1.0000
     1.0000   1.0000   1.0000   1.0000   1.0000   1.0000   1.0000   1.0000
     1.0000   1.0000   1.0000   1.0000   1.0000   1.0000   1.0000   1.0000
     1.0000   1.0000

          k =-0.0000 0.0000 0.1713 (  3770 PWs)   bands (ev):

  -114.1570-114.1568 -68.5479 -68.5446 -68.5003 -68.5003 -68.4995 -68.4995
    -8.9559  -8.2902   3.0702   3.0702   3.0874   3.0874   3.3920   3.6540
     4.4164   4.4164   4.6192   4.6192   5.7128   7.7077   8.3699   8.3699
     8.8551   8.8551

     occupation numbers 
     1.0000   1.0000   1.0000   1.0000   1.0000   1.0000   1.0000   1.0000
     1.0000   1.0000   1.0000   1.0000   1.0000   1.0000   1.0000   1.0000
     1.0000   1.0000   1.0000   1.0000   1.0000   1.0000   1.0000   1.0000
     1.0000   1.0000

          k =-0.0000 0.0000 0.2569 (  3788 PWs)   bands (ev):

  -114.1570-114.1568 -68.5471 -68.5454 -68.5001 -68.5001 -68.4997 -68.4997
    -8.8065  -8.4460   3.0602   3.0602   3.0699   3.0699   3.3041   3.4773
     4.4772   4.4772   4.5867   4.5867   6.2385   7.2253   8.4875   8.4875
     8.7507   8.7507

     occupation numbers 
     1.0000   1.0000   1.0000   1.0000   1.0000   1.0000   1.0000   1.0000
     1.0000   1.0000   1.0000   1.0000   1.0000   1.0000   1.0000   1.0000
     1.0000   1.0000   1.0000   1.0000   1.0000   1.0000   1.0000   1.0000
     1.0000   1.0000

          k = 0.0000-0.0000-0.3425 (  3842 PWs)   bands (ev):

  -114.1570-114.1569 -68.5464 -68.5463 -68.5000 -68.5000 -68.4999 -68.4999
    -8.6276  -8.6276   3.0594   3.0594   3.0595   3.0595   3.3412   3.3413
     4.5377   4.5377   4.5377   4.5377   6.7450   6.7451   8.6218   8.6218
     8.6218   8.6218

     occupation numbers 
     1.0000   1.0000   1.0000   1.0000   1.0000   1.0000   1.0000   1.0000
     1.0000   1.0000   1.0000   1.0000   1.0000   1.0000   1.0000   1.0000
     1.0000   1.0000   1.0000   1.0000   1.0000   1.0000   1.0000   1.0000
     1.0000   1.0000

          k =-0.0000 0.1443 0.0000 (  3783 PWs)   bands (ev):

  -114.1571-114.1567 -68.5485 -68.5440 -68.5007 -68.5005 -68.4996 -68.4993
    -9.0012  -8.1199   3.0090   3.1133   3.1589   3.2011   3.6700   3.8799
     4.3232   4.3379   4.6522   4.8243   5.0280   7.6980   8.0069   8.1173
     8.4465   8.7800

     occupation numbers 
     1.0000   1.0000   1.0000   1.0000   1.0000   1.0000   1.0000   1.0000
     1.0000   1.0000   1.0000   1.0000   1.0000   1.0000   1.0000   1.0000
     1.0000   1.0000   1.0000   1.0000   1.0000   1.0000   1.0000   1.0000
     1.0000   1.0000

          k =-0.0000 0.1443 0.0856 (  3784 PWs)   bands (ev):

  -114.1571-114.1567 -68.5483 -68.5442 -68.5006 -68.5005 -68.4996 -68.4994
    -8.9685  -8.1539   3.0005   3.0903   3.1544   3.1933   3.5768   3.8173
     4.3514   4.3560   4.6457   4.7413   5.3055   7.7091   7.8845   8.0389
     8.6012   8.7537

     occupation numbers 
     1.0000   1.0000   1.0000   1.0000   1.0000   1.0000   1.0000   1.0000
     1.0000   1.0000   1.0000   1.0000   1.0000   1.0000   1.0000   1.0000
     1.0000   1.0000   1.0000   1.0000   1.0000   1.0000   1.0000   1.0000
     1.0000   1.0000

          k =-0.0000 0.1443 0.1713 (  3788 PWs)   bands (ev):

  -114.1570-114.1568 -68.5478 -68.5447 -68.5005 -68.5004 -68.4997 -68.4995
    -8.8749  -8.2507   2.9769   3.0282   3.1446   3.1741   3.4375   3.6697
     4.4041   4.4163   4.6247   4.6805   5.7842   7.4355   7.9070   8.1290
     8.6640   8.6770

     occupation numbers 
     1.0000   1.0000   1.0000   1.0000   1.0000   1.0000   1.0000   1.0000
     1.0000   1.0000   1.0000   1.0000   1.0000   1.0000   1.0000   1.0000
     1.0000   1.0000   1.0000   1.0000   1.0000   1.0000   1.0000   1.0000
     1.0000   1.0000

          k =-0.0000 0.1443 0.2569 (  3794 PWs)   bands (ev):

  -114.1570-114.1568 -68.5471 -68.5454 -68.5003 -68.5002 -68.4999 -68.4997
    -8.7335  -8.3954   2.9457   2.9670   3.1373   3.1533   3.3777   3.5113
     4.4681   4.4929   4.5869   4.6285   6.2705   7.0736   8.1056   8.2612
     8.5562   8.5583

     occupation numbers 
     1.0000   1.0000   1.0000   1.0000   1.0000   1.0000   1.0000   1.0000
     1.0000   1.0000   1.0000   1.0000   1.0000   1.0000   1.0000   1.0000
     1.0000   1.0000   1.0000   1.0000   1.0000   1.0000   1.0000   1.0000
     1.0000   1.0000

          k = 0.0000 0.1443-0.3425 (  3794 PWs)   bands (ev):

  -114.1570-114.1568 -68.5463 -68.5462 -68.5002 -68.5000 -68.5000 -68.4999
    -8.5652  -8.5652   2.9375   2.9375   3.1396   3.1396   3.4047   3.4047
     4.5328   4.5328   4.5663   4.5663   6.6979   6.6979   8.3450   8.3450
     8.4126   8.4126

     occupation numbers 
     1.0000   1.0000   1.0000   1.0000   1.0000   1.0000   1.0000   1.0000
     1.0000   1.0000   1.0000   1.0000   1.0000   1.0000   1.0000   1.0000
     1.0000   1.0000   1.0000   1.0000   1.0000   1.0000   1.0000   1.0000
     1.0000   1.0000

          k = 0.0000 0.1443-0.2569 (  3794 PWs)   bands (ev):

  -114.1570-114.1568 -68.5471 -68.5454 -68.5003 -68.5002 -68.4999 -68.4997
    -8.7335  -8.3954   2.9457   2.9670   3.1373   3.1533   3.3777   3.5113
     4.4681   4.4929   4.5869   4.6285   6.2705   7.0736   8.1056   8.2612
     8.5562   8.5583

     occupation numbers 
     1.0000   1.0000   1.0000   1.0000   1.0000   1.0000   1.0000   1.0000
     1.0000   1.0000   1.0000   1.0000   1.0000   1.0000   1.0000   1.0000
     1.0000   1.0000   1.0000   1.0000   1.0000   1.0000   1.0000   1.0000
     1.0000   1.0000

          k = 0.0000 0.1443-0.1713 (  3788 PWs)   bands (ev):

  -114.1570-114.1568 -68.5478 -68.5447 -68.5005 -68.5004 -68.4997 -68.4995
    -8.8749  -8.2507   2.9769   3.0282   3.1446   3.1741   3.4375   3.6697
     4.4041   4.4163   4.6247   4.6805   5.7842   7.4355   7.9070   8.1290
     8.6640   8.6770

     occupation numbers 
     1.0000   1.0000   1.0000   1.0000   1.0000   1.0000   1.0000   1.0000
     1.0000   1.0000   1.0000   1.0000   1.0000   1.0000   1.0000   1.0000
     1.0000   1.0000   1.0000   1.0000   1.0000   1.0000   1.0000   1.0000
     1.0000   1.0000

          k =-0.0000 0.1443-0.0856 (  3784 PWs)   bands (ev):

  -114.1571-114.1567 -68.5483 -68.5442 -68.5006 -68.5005 -68.4996 -68.4994
    -8.9685  -8.1539   3.0005   3.0903   3.1544   3.1933   3.5768   3.8173
     4.3514   4.3560   4.6457   4.7413   5.3055   7.7091   7.8845   8.0389
     8.6012   8.7537

     occupation numbers 
     1.0000   1.0000   1.0000   1.0000   1.0000   1.0000   1.0000   1.0000
     1.0000   1.0000   1.0000   1.0000   1.0000   1.0000   1.0000   1.0000
     1.0000   1.0000   1.0000   1.0000   1.0000   1.0000   1.0000   1.0000
     1.0000   1.0000

          k =-0.0000 0.2887 0.0000 (  3794 PWs)   bands (ev):

  -114.1570-114.1567 -68.5480 -68.5444 -68.5012 -68.5008 -68.5002 -68.4994
    -8.7726  -8.0622   2.8810   3.1314   3.3684   3.4185   3.7066   3.9207
     4.2832   4.3241   4.6731   4.9589   5.3015   6.5609   7.0817   7.4004
     8.2697   8.3597

     occupation numbers 
     1.0000   1.0000   1.0000   1.0000   1.0000   1.0000   1.0000   1.0000
     1.0000   1.0000   1.0000   1.0000   1.0000   1.0000   1.0000   1.0000
     1.0000   1.0000   1.0000   1.0000   1.0000   1.0000   1.0000   1.0000
     1.0000   1.0000

          k =-0.0000 0.2887 0.0856 (  3788 PWs)   bands (ev):

  -114.1570-114.1568 -68.5478 -68.5446 -68.5012 -68.5007 -68.5003 -68.4995
    -8.7448  -8.0879   2.8659   3.0827   3.3641   3.4102   3.6334   3.8432
     4.3366   4.3421   4.6632   4.8710   5.5315   6.6320   7.0041   7.4406
     8.3268   8.3597

     occupation numbers 
     1.0000   1.0000   1.0000   1.0000   1.0000   1.0000   1.0000   1.0000
     1.0000   1.0000   1.0000   1.0000   1.0000   1.0000   1.0000   1.0000
     1.0000   1.0000   1.0000   1.0000   1.0000   1.0000   1.0000   1.0000
     1.0000   1.0000

          k =-0.0000 0.2887 0.1713 (  3785 PWs)   bands (ev):

  -114.1570-114.1568 -68.5475 -68.5449 -68.5010 -68.5006 -68.5004 -68.4996
    -8.6660  -8.1622   2.8239   2.9589   3.3547   3.3899   3.5236   3.6933
     4.3904   4.4364   4.6337   4.7846   5.8675   6.6534   7.0973   7.5534
     8.2314   8.4608

     occupation numbers 
     1.0000   1.0000   1.0000   1.0000   1.0000   1.0000   1.0000   1.0000
     1.0000   1.0000   1.0000   1.0000   1.0000   1.0000   1.0000   1.0000
     1.0000   1.0000   1.0000   1.0000   1.0000   1.0000   1.0000   1.0000
     1.0000   1.0000

          k =-0.0000 0.2887 0.2569 (  3793 PWs)   bands (ev):

  -114.1570-114.1568 -68.5469 -68.5455 -68.5009 -68.5005 -68.5004 -68.4998
    -8.5485  -8.2753   2.7764   2.8365   3.3485   3.3674   3.4714   3.5601
     4.4559   4.5386   4.5863   4.7121   6.1147   6.4852   7.5548   7.7176
     8.0844   8.3666

     occupation numbers 
     1.0000   1.0000   1.0000   1.0000   1.0000   1.0000   1.0000   1.0000
     1.0000   1.0000   1.0000   1.0000   1.0000   1.0000   1.0000   1.0000
     1.0000   1.0000   1.0000   1.0000   1.0000   1.0000   1.0000   1.0000
     1.0000   1.0000

          k = 0.0000 0.2887-0.3425 (  3814 PWs)   bands (ev):

  -114.1569-114.1568 -68.5463 -68.5462 -68.5008 -68.5007 -68.5002 -68.5001
    -8.4110  -8.4110   2.7715   2.7715   3.3521   3.3521   3.4836   3.4837
     4.5247   4.5247   4.6317   4.6318   6.3055   6.3055   7.9045   7.9046
     8.0367   8.0367

     occupation numbers 
     1.0000   1.0000   1.0000   1.0000   1.0000   1.0000   1.0000   1.0000
     1.0000   1.0000   1.0000   1.0000   1.0000   1.0000   1.0000   1.0000
     1.0000   1.0000   1.0000   1.0000   1.0000   1.0000   1.0000   1.0000
     1.0000   1.0000

          k = 0.0000 0.2887-0.2569 (  3793 PWs)   bands (ev):

  -114.1570-114.1568 -68.5469 -68.5455 -68.5009 -68.5005 -68.5004 -68.4998
    -8.5485  -8.2753   2.7764   2.8365   3.3485   3.3674   3.4715   3.5601
     4.4559   4.5386   4.5863   4.7121   6.1147   6.4852   7.5548   7.7176
     8.0844   8.3666

     occupation numbers 
     1.0000   1.0000   1.0000   1.0000   1.0000   1.0000   1.0000   1.0000
     1.0000   1.0000   1.0000   1.0000   1.0000   1.0000   1.0000   1.0000
     1.0000   1.0000   1.0000   1.0000   1.0000   1.0000   1.0000   1.0000
     1.0000   1.0000

          k =-0.0000 0.2887-0.1713 (  3785 PWs)   bands (ev):

  -114.1570-114.1568 -68.5475 -68.5449 -68.5010 -68.5006 -68.5004 -68.4996
    -8.6660  -8.1622   2.8239   2.9589   3.3547   3.3899   3.5237   3.6932
     4.3904   4.4364   4.6337   4.7846   5.8675   6.6534   7.0973   7.5534
     8.2314   8.4608

     occupation numbers 
     1.0000   1.0000   1.0000   1.0000   1.0000   1.0000   1.0000   1.0000
     1.0000   1.0000   1.0000   1.0000   1.0000   1.0000   1.0000   1.0000
     1.0000   1.0000   1.0000   1.0000   1.0000   1.0000   1.0000   1.0000
     1.0000   1.0000

          k =-0.0000 0.2887-0.0856 (  3788 PWs)   bands (ev):

  -114.1570-114.1568 -68.5478 -68.5446 -68.5012 -68.5007 -68.5003 -68.4995
    -8.7448  -8.0879   2.8659   3.0827   3.3641   3.4102   3.6334   3.8432
     4.3366   4.3421   4.6632   4.8710   5.5315   6.6320   7.0041   7.4406
     8.3268   8.3597

     occupation numbers 
     1.0000   1.0000   1.0000   1.0000   1.0000   1.0000   1.0000   1.0000
     1.0000   1.0000   1.0000   1.0000   1.0000   1.0000   1.0000   1.0000
     1.0000   1.0000   1.0000   1.0000   1.0000   1.0000   1.0000   1.0000
     1.0000   1.0000

          k =-0.0000 0.4330 0.0000 (  3788 PWs)   bands (ev):

  -114.1570-114.1568 -68.5473 -68.5450 -68.5017 -68.5010 -68.5009 -68.4995
    -8.5010  -8.0380   2.8701   3.1429   3.5891   3.6820   3.7839   4.0658
     4.3138   4.3691   4.6891   4.8763   5.3755   5.8453   6.2616   6.7609
     7.9059   7.9776

     occupation numbers 
     1.0000   1.0000   1.0000   1.0000   1.0000   1.0000   1.0000   1.0000
     1.0000   1.0000   1.0000   1.0000   1.0000   1.0000   1.0000   1.0000
     1.0000   1.0000   1.0000   1.0000   1.0000   1.0000   1.0000   1.0000
     1.0000   1.0000

          k =-0.0000 0.4330 0.0856 (  3792 PWs)   bands (ev):

  -114.1570-114.1568 -68.5472 -68.5451 -68.5017 -68.5010 -68.5009 -68.4996
    -8.4810  -8.0527   2.8444   3.0869   3.5871   3.6732   3.7136   3.9664
     4.3822   4.3841   4.6754   4.8518   5.3915   5.8521   6.4441   6.8118
     7.8675   8.0839

     occupation numbers 
     1.0000   1.0000   1.0000   1.0000   1.0000   1.0000   1.0000   1.0000
     1.0000   1.0000   1.0000   1.0000   1.0000   1.0000   1.0000   1.0000
     1.0000   1.0000   1.0000   1.0000   1.0000   1.0000   1.0000   1.0000
     1.0000   1.0000

          k =-0.0000 0.4330 0.1713 (  3801 PWs)   bands (ev):

  -114.1569-114.1568 -68.5470 -68.5454 -68.5016 -68.5010 -68.5008 -68.4998
    -8.4249  -8.0960   2.7759   2.9430   3.5842   3.6076   3.6504   3.8003
     4.4182   4.4933   4.6382   4.8049   5.4395   5.7789   6.9521   6.9583
     7.7565   8.2707

     occupation numbers 
     1.0000   1.0000   1.0000   1.0000   1.0000   1.0000   1.0000   1.0000
     1.0000   1.0000   1.0000   1.0000   1.0000   1.0000   1.0000   1.0000
     1.0000   1.0000   1.0000   1.0000   1.0000   1.0000   1.0000   1.0000
     1.0000   1.0000

          k =-0.0000 0.4330 0.2569 (  3807 PWs)   bands (ev):

  -114.1569-114.1568 -68.5467 -68.5457 -68.5014 -68.5011 -68.5005 -68.5000
    -8.3433  -8.1647   2.7068   2.7901   3.5622   3.5866   3.6226   3.6647
     4.4696   4.5864   4.5928   4.7479   5.5091   5.6809   7.1516   7.5602
     7.5851   8.3028

     occupation numbers 
     1.0000   1.0000   1.0000   1.0000   1.0000   1.0000   1.0000   1.0000
     1.0000   1.0000   1.0000   1.0000   1.0000   1.0000   1.0000   1.0000
     1.0000   1.0000   1.0000   1.0000   1.0000   1.0000   1.0000   1.0000
     1.0000   1.0000

          k = 0.0000 0.4330-0.3425 (  3790 PWs)   bands (ev):

  -114.1569-114.1568 -68.5462 -68.5461 -68.5013 -68.5012 -68.5003 -68.5002
    -8.2514  -8.2514   2.7022   2.7022   3.5837   3.5837   3.5994   3.5995
     4.5279   4.5280   4.6777   4.6778   5.5904   5.5904   7.3740   7.3740
     8.0533   8.0533

     occupation numbers 
     1.0000   1.0000   1.0000   1.0000   1.0000   1.0000   1.0000   1.0000
     1.0000   1.0000   1.0000   1.0000   1.0000   1.0000   1.0000   1.0000
     1.0000   1.0000   1.0000   1.0000   1.0000   1.0000   1.0000   1.0000
     1.0000   1.0000

          k =-0.0000 0.4330-0.2569 (  3807 PWs)   bands (ev):

  -114.1569-114.1568 -68.5467 -68.5457 -68.5014 -68.5011 -68.5005 -68.5000
    -8.3433  -8.1647   2.7068   2.7901   3.5622   3.5866   3.6226   3.6647
     4.4696   4.5864   4.5928   4.7479   5.5091   5.6809   7.1516   7.5602
     7.5851   8.3028

     occupation numbers 
     1.0000   1.0000   1.0000   1.0000   1.0000   1.0000   1.0000   1.0000
     1.0000   1.0000   1.0000   1.0000   1.0000   1.0000   1.0000   1.0000
     1.0000   1.0000   1.0000   1.0000   1.0000   1.0000   1.0000   1.0000
     1.0000   1.0000

          k =-0.0000 0.4330-0.1713 (  3801 PWs)   bands (ev):

  -114.1569-114.1568 -68.5470 -68.5454 -68.5016 -68.5010 -68.5008 -68.4998
    -8.4249  -8.0960   2.7759   2.9430   3.5842   3.6076   3.6504   3.8003
     4.4182   4.4932   4.6382   4.8050   5.4395   5.7789   6.9521   6.9583
     7.7565   8.2707

     occupation numbers 
     1.0000   1.0000   1.0000   1.0000   1.0000   1.0000   1.0000   1.0000
     1.0000   1.0000   1.0000   1.0000   1.0000   1.0000   1.0000   1.0000
     1.0000   1.0000   1.0000   1.0000   1.0000   1.0000   1.0000   1.0000
     1.0000   1.0000

          k =-0.0000 0.4330-0.0856 (  3792 PWs)   bands (ev):

  -114.1570-114.1568 -68.5472 -68.5451 -68.5017 -68.5010 -68.5009 -68.4996
    -8.4810  -8.0527   2.8444   3.0869   3.5871   3.6732   3.7136   3.9664
     4.3822   4.3841   4.6754   4.8518   5.3915   5.8521   6.4441   6.8118
     7.8675   8.0839

     occupation numbers 
     1.0000   1.0000   1.0000   1.0000   1.0000   1.0000   1.0000   1.0000
     1.0000   1.0000   1.0000   1.0000   1.0000   1.0000   1.0000   1.0000
     1.0000   1.0000   1.0000   1.0000   1.0000   1.0000   1.0000   1.0000
     1.0000   1.0000

          k = 0.0000-0.5774-0.0000 (  3796 PWs)   bands (ev):

  -114.1569-114.1568 -68.5469 -68.5453 -68.5020 -68.5012 -68.5010 -68.4996
    -8.3557  -8.0580   2.9584   3.0943   3.6672   3.7887   3.8227   4.2295
     4.4263   4.4855   4.6944   4.7178   5.0708   5.4202   6.3728   6.4657
     7.7040   7.7790

     occupation numbers 
     1.0000   1.0000   1.0000   1.0000   1.0000   1.0000   1.0000   1.0000
     1.0000   1.0000   1.0000   1.0000   1.0000   1.0000   1.0000   1.0000
     1.0000   1.0000   1.0000   1.0000   1.0000   1.0000   1.0000   1.0000
     1.0000   1.0000

          k = 0.0000-0.5774 0.0856 (  3794 PWs)   bands (ev):

  -114.1569-114.1568 -68.5469 -68.5454 -68.5019 -68.5012 -68.5010 -68.4996
    -8.3412  -8.0657   2.9173   3.0484   3.6687   3.7295   3.8123   4.1320
     4.4346   4.5178   4.6780   4.7176   5.1000   5.3684   6.5236   6.6055
     7.6635   7.8992

     occupation numbers 
     1.0000   1.0000   1.0000   1.0000   1.0000   1.0000   1.0000   1.0000
     1.0000   1.0000   1.0000   1.0000   1.0000   1.0000   1.0000   1.0000
     1.0000   1.0000   1.0000   1.0000   1.0000   1.0000   1.0000   1.0000
     1.0000   1.0000

          k = 0.0000-0.5774 0.1713 (  3794 PWs)   bands (ev):

  -114.1569-114.1568 -68.5467 -68.5456 -68.5018 -68.5013 -68.5008 -68.4998
    -8.3011  -8.0894   2.8126   2.9268   3.6455   3.6749   3.7847   3.9405
     4.4581   4.5755   4.6370   4.7108   5.1533   5.3012   6.6807   7.1194
     7.5462   8.1401

     occupation numbers 
     1.0000   1.0000   1.0000   1.0000   1.0000   1.0000   1.0000   1.0000
     1.0000   1.0000   1.0000   1.0000   1.0000   1.0000   1.0000   1.0000
     1.0000   1.0000   1.0000   1.0000   1.0000   1.0000   1.0000   1.0000
     1.0000   1.0000

          k = 0.0000-0.5774 0.2569 (  3800 PWs)   bands (ev):

  -114.1569-114.1568 -68.5465 -68.5459 -68.5017 -68.5014 -68.5006 -68.5000
    -8.2445  -8.1296   2.7147   2.7851   3.6239   3.6895   3.7489   3.7752
     4.4934   4.5867   4.6259   4.6934   5.1994   5.2618   6.8995   7.3645
     7.6764   8.2610

     occupation numbers 
     1.0000   1.0000   1.0000   1.0000   1.0000   1.0000   1.0000   1.0000
     1.0000   1.0000   1.0000   1.0000   1.0000   1.0000   1.0000   1.0000
     1.0000   1.0000   1.0000   1.0000   1.0000   1.0000   1.0000   1.0000
     1.0000   1.0000

          k = 0.0000-0.5774-0.3425 (  3792 PWs)   bands (ev):

  -114.1569-114.1568 -68.5462 -68.5461 -68.5016 -68.5015 -68.5004 -68.5003
    -8.1836  -8.1836   2.6995   2.6995   3.6692   3.6693   3.7148   3.7148
     4.5372   4.5373   4.6650   4.6650   5.2333   5.2334   7.1394   7.1394
     8.1008   8.1009

     occupation numbers 
     1.0000   1.0000   1.0000   1.0000   1.0000   1.0000   1.0000   1.0000
     1.0000   1.0000   1.0000   1.0000   1.0000   1.0000   1.0000   1.0000
     1.0000   1.0000   1.0000   1.0000   1.0000   1.0000   1.0000   1.0000
     1.0000   1.0000

          k = 0.1250 0.0722-0.0000 (  3783 PWs)   bands (ev):

  -114.1571-114.1567 -68.5485 -68.5440 -68.5007 -68.5005 -68.4996 -68.4993
    -9.0012  -8.1199   3.0090   3.1133   3.1589   3.2011   3.6700   3.8799
     4.3233   4.3379   4.6522   4.8242   5.0280   7.6980   8.0069   8.1173
     8.4465   8.7800

     occupation numbers 
     1.0000   1.0000   1.0000   1.0000   1.0000   1.0000   1.0000   1.0000
     1.0000   1.0000   1.0000   1.0000   1.0000   1.0000   1.0000   1.0000
     1.0000   1.0000   1.0000   1.0000   1.0000   1.0000   1.0000   1.0000
     1.0000   1.0000

          k = 0.1250 0.0722 0.0856 (  3784 PWs)   bands (ev):

  -114.1571-114.1567 -68.5483 -68.5442 -68.5006 -68.5005 -68.4996 -68.4994
    -8.9685  -8.1539   3.0005   3.0903   3.1544   3.1933   3.5768   3.8173
     4.3514   4.3560   4.6457   4.7413   5.3055   7.7091   7.8845   8.0389
     8.6012   8.7537

     occupation numbers 
     1.0000   1.0000   1.0000   1.0000   1.0000   1.0000   1.0000   1.0000
     1.0000   1.0000   1.0000   1.0000   1.0000   1.0000   1.0000   1.0000
     1.0000   1.0000   1.0000   1.0000   1.0000   1.0000   1.0000   1.0000
     1.0000   1.0000

          k = 0.1250 0.0722 0.1713 (  3788 PWs)   bands (ev):

  -114.1570-114.1568 -68.5478 -68.5447 -68.5005 -68.5004 -68.4997 -68.4995
    -8.8749  -8.2507   2.9769   3.0282   3.1446   3.1741   3.4375   3.6697
     4.4041   4.4163   4.6247   4.6805   5.7842   7.4355   7.9070   8.1290
     8.6640   8.6770

     occupation numbers 
     1.0000   1.0000   1.0000   1.0000   1.0000   1.0000   1.0000   1.0000
     1.0000   1.0000   1.0000   1.0000   1.0000   1.0000   1.0000   1.0000
     1.0000   1.0000   1.0000   1.0000   1.0000   1.0000   1.0000   1.0000
     1.0000   1.0000

          k = 0.1250 0.0722 0.2569 (  3794 PWs)   bands (ev):

  -114.1570-114.1568 -68.5471 -68.5454 -68.5003 -68.5002 -68.4999 -68.4997
    -8.7335  -8.3954   2.9457   2.9670   3.1373   3.1533   3.3777   3.5113
     4.4681   4.4929   4.5869   4.6285   6.2705   7.0736   8.1056   8.2612
     8.5562   8.5583

     occupation numbers 
     1.0000   1.0000   1.0000   1.0000   1.0000   1.0000   1.0000   1.0000
     1.0000   1.0000   1.0000   1.0000   1.0000   1.0000   1.0000   1.0000
     1.0000   1.0000   1.0000   1.0000   1.0000   1.0000   1.0000   1.0000
     1.0000   1.0000

          k = 0.1250 0.0722-0.3425 (  3794 PWs)   bands (ev):

  -114.1570-114.1568 -68.5463 -68.5462 -68.5002 -68.5000 -68.5000 -68.4999
    -8.5652  -8.5652   2.9375   2.9375   3.1396   3.1396   3.4047   3.4047
     4.5328   4.5328   4.5663   4.5663   6.6979   6.6979   8.3450   8.3450
     8.4126   8.4126

     occupation numbers 
     1.0000   1.0000   1.0000   1.0000   1.0000   1.0000   1.0000   1.0000
     1.0000   1.0000   1.0000   1.0000   1.0000   1.0000   1.0000   1.0000
     1.0000   1.0000   1.0000   1.0000   1.0000   1.0000   1.0000   1.0000
     1.0000   1.0000

          k = 0.1250 0.0722-0.2569 (  3794 PWs)   bands (ev):

  -114.1570-114.1568 -68.5471 -68.5454 -68.5003 -68.5002 -68.4999 -68.4997
    -8.7335  -8.3954   2.9457   2.9670   3.1373   3.1533   3.3777   3.5113
     4.4681   4.4929   4.5869   4.6285   6.2705   7.0736   8.1056   8.2612
     8.5562   8.5583

     occupation numbers 
     1.0000   1.0000   1.0000   1.0000   1.0000   1.0000   1.0000   1.0000
     1.0000   1.0000   1.0000   1.0000   1.0000   1.0000   1.0000   1.0000
     1.0000   1.0000   1.0000   1.0000   1.0000   1.0000   1.0000   1.0000
     1.0000   1.0000

          k = 0.1250 0.0722-0.1713 (  3788 PWs)   bands (ev):

  -114.1570-114.1568 -68.5478 -68.5447 -68.5005 -68.5004 -68.4997 -68.4995
    -8.8749  -8.2507   2.9769   3.0282   3.1446   3.1741   3.4375   3.6697
     4.4041   4.4163   4.6247   4.6805   5.7842   7.4355   7.9070   8.1290
     8.6640   8.6770

     occupation numbers 
     1.0000   1.0000   1.0000   1.0000   1.0000   1.0000   1.0000   1.0000
     1.0000   1.0000   1.0000   1.0000   1.0000   1.0000   1.0000   1.0000
     1.0000   1.0000   1.0000   1.0000   1.0000   1.0000   1.0000   1.0000
     1.0000   1.0000

          k = 0.1250 0.0722-0.0856 (  3784 PWs)   bands (ev):

  -114.1571-114.1567 -68.5483 -68.5442 -68.5006 -68.5005 -68.4996 -68.4994
    -8.9685  -8.1539   3.0005   3.0903   3.1544   3.1933   3.5768   3.8173
     4.3514   4.3560   4.6457   4.7413   5.3055   7.7091   7.8845   8.0389
     8.6012   8.7537

     occupation numbers 
     1.0000   1.0000   1.0000   1.0000   1.0000   1.0000   1.0000   1.0000
     1.0000   1.0000   1.0000   1.0000   1.0000   1.0000   1.0000   1.0000
     1.0000   1.0000   1.0000   1.0000   1.0000   1.0000   1.0000   1.0000
     1.0000   1.0000

          k = 0.1250 0.2165 0.0000 (  3793 PWs)   bands (ev):

  -114.1570-114.1567 -68.5481 -68.5443 -68.5010 -68.5008 -68.5000 -68.4995
    -8.8428  -8.0769   2.9330   3.1247   3.2902   3.3346   3.6991   3.9076
     4.2930   4.3198   4.6666   4.9652   5.1847   7.0078   7.1940   7.6108
     8.3419   8.4127

     occupation numbers 
     1.0000   1.0000   1.0000   1.0000   1.0000   1.0000   1.0000   1.0000
     1.0000   1.0000   1.0000   1.0000   1.0000   1.0000   1.0000   1.0000
     1.0000   1.0000   1.0000   1.0000   1.0000   1.0000   1.0000   1.0000
     1.0000   1.0000

          k = 0.1250 0.2165 0.0856 (  3790 PWs)   bands (ev):

  -114.1570-114.1567 -68.5480 -68.5444 -68.5009 -68.5007 -68.5000 -68.4995
    -8.8134  -8.1053   2.9213   3.0780   3.2880   3.3263   3.6232   3.8343
     4.3384   4.3393   4.6579   4.8509   5.4636   7.0842   7.1228   7.5854
     8.3798   8.4427

     occupation numbers 
     1.0000   1.0000   1.0000   1.0000   1.0000   1.0000   1.0000   1.0000
     1.0000   1.0000   1.0000   1.0000   1.0000   1.0000   1.0000   1.0000
     1.0000   1.0000   1.0000   1.0000   1.0000   1.0000   1.0000   1.0000
     1.0000   1.0000

          k = 0.1250 0.2165 0.1713 (  3790 PWs)   bands (ev):

  -114.1570-114.1568 -68.5476 -68.5449 -68.5008 -68.5006 -68.5001 -68.4997
    -8.7297  -8.1868   2.8880   2.9625   3.2811   3.3061   3.5092   3.6848
     4.3883   4.4299   4.6314   4.7620   5.8790   6.9291   7.3247   7.6390
     8.2850   8.5403

     occupation numbers 
     1.0000   1.0000   1.0000   1.0000   1.0000   1.0000   1.0000   1.0000
     1.0000   1.0000   1.0000   1.0000   1.0000   1.0000   1.0000   1.0000
     1.0000   1.0000   1.0000   1.0000   1.0000   1.0000   1.0000   1.0000
     1.0000   1.0000

          k = 0.1250 0.2165 0.2569 (  3794 PWs)   bands (ev):

  -114.1570-114.1568 -68.5470 -68.5455 -68.5007 -68.5004 -68.5002 -68.4998
    -8.6044  -8.3100   2.8439   2.8563   3.2735   3.2848   3.4549   3.5473
     4.4550   4.5238   4.5884   4.6924   6.2233   6.7068   7.7092   7.7790
     8.1422   8.4424

     occupation numbers 
     1.0000   1.0000   1.0000   1.0000   1.0000   1.0000   1.0000   1.0000
     1.0000   1.0000   1.0000   1.0000   1.0000   1.0000   1.0000   1.0000
     1.0000   1.0000   1.0000   1.0000   1.0000   1.0000   1.0000   1.0000
     1.0000   1.0000

          k = 0.1250 0.2165-0.3425 (  3792 PWs)   bands (ev):

  -114.1569-114.1568 -68.5463 -68.5462 -68.5005 -68.5004 -68.5001 -68.5000
    -8.4568  -8.4568   2.8195   2.8195   3.2728   3.2729   3.4676   3.4676
     4.5231   4.5232   4.6169   4.6169   6.4824   6.4824   7.9466   7.9466
     8.1470   8.1470

     occupation numbers 
     1.0000   1.0000   1.0000   1.0000   1.0000   1.0000   1.0000   1.0000
     1.0000   1.0000   1.0000   1.0000   1.0000   1.0000   1.0000   1.0000
     1.0000   1.0000   1.0000   1.0000   1.0000   1.0000   1.0000   1.0000
     1.0000   1.0000

          k = 0.1250 0.2165-0.2569 (  3794 PWs)   bands (ev):

  -114.1570-114.1568 -68.5470 -68.5455 -68.5007 -68.5004 -68.5002 -68.4998
    -8.6044  -8.3100   2.8439   2.8563   3.2735   3.2848   3.4549   3.5473
     4.4550   4.5238   4.5884   4.6924   6.2233   6.7068   7.7092   7.7790
     8.1422   8.4424

     occupation numbers 
     1.0000   1.0000   1.0000   1.0000   1.0000   1.0000   1.0000   1.0000
     1.0000   1.0000   1.0000   1.0000   1.0000   1.0000   1.0000   1.0000
     1.0000   1.0000   1.0000   1.0000   1.0000   1.0000   1.0000   1.0000
     1.0000   1.0000

          k = 0.1250 0.2165-0.1713 (  3790 PWs)   bands (ev):

  -114.1570-114.1568 -68.5476 -68.5449 -68.5008 -68.5006 -68.5001 -68.4997
    -8.7297  -8.1868   2.8880   2.9625   3.2811   3.3061   3.5092   3.6848
     4.3883   4.4299   4.6314   4.7620   5.8790   6.9291   7.3247   7.6390
     8.2850   8.5403

     occupation numbers 
     1.0000   1.0000   1.0000   1.0000   1.0000   1.0000   1.0000   1.0000
     1.0000   1.0000   1.0000   1.0000   1.0000   1.0000   1.0000   1.0000
     1.0000   1.0000   1.0000   1.0000   1.0000   1.0000   1.0000   1.0000
     1.0000   1.0000

          k = 0.1250 0.2165-0.0856 (  3790 PWs)   bands (ev):

  -114.1570-114.1567 -68.5480 -68.5444 -68.5009 -68.5007 -68.5000 -68.4995
    -8.8134  -8.1053   2.9213   3.0780   3.2880   3.3263   3.6232   3.8343
     4.3384   4.3393   4.6579   4.8509   5.4636   7.0842   7.1228   7.5854
     8.3798   8.4427

     occupation numbers 
     1.0000   1.0000   1.0000   1.0000   1.0000   1.0000   1.0000   1.0000
     1.0000   1.0000   1.0000   1.0000   1.0000   1.0000   1.0000   1.0000
     1.0000   1.0000   1.0000   1.0000   1.0000   1.0000   1.0000   1.0000
     1.0000   1.0000

          k = 0.1250 0.3608 0.0000 (  3806 PWs)   bands (ev):

  -114.1570-114.1568 -68.5475 -68.5448 -68.5015 -68.5011 -68.5005 -68.4996
    -8.5896  -8.0381   2.9147   3.1931   3.4570   3.5597   3.8161   3.9545
     4.3002   4.3379   4.6841   4.9277   5.5272   6.1155   6.4590   6.7493
     7.8624   8.0924

     occupation numbers 
     1.0000   1.0000   1.0000   1.0000   1.0000   1.0000   1.0000   1.0000
     1.0000   1.0000   1.0000   1.0000   1.0000   1.0000   1.0000   1.0000
     1.0000   1.0000   1.0000   1.0000   1.0000   1.0000   1.0000   1.0000
     1.0000   1.0000

          k = 0.1250 0.3608 0.0856 (  3794 PWs)   bands (ev):

  -114.1570-114.1568 -68.5474 -68.5449 -68.5014 -68.5011 -68.5005 -68.4997
    -8.5668  -8.0567   2.8951   3.1294   3.4596   3.5470   3.7412   3.8746
     4.3478   4.3699   4.6722   4.8875   5.5989   6.2091   6.5117   6.7844
     7.8188   8.2009

     occupation numbers 
     1.0000   1.0000   1.0000   1.0000   1.0000   1.0000   1.0000   1.0000
     1.0000   1.0000   1.0000   1.0000   1.0000   1.0000   1.0000   1.0000
     1.0000   1.0000   1.0000   1.0000   1.0000   1.0000   1.0000   1.0000
     1.0000   1.0000

[...]

  -114.1569-114.1568 -68.5467 -68.5456 -68.5015 -68.5013 -68.5008 -68.5002
    -8.3106  -8.0850   3.0259   3.1118   3.5847   3.5936   3.6988   3.8507
     4.4536   4.4749   4.6752   4.8458   5.3953   5.6478   5.9389   6.8770
     7.3161   8.1686

     occupation numbers 
     1.0000   1.0000   1.0000   1.0000   1.0000   1.0000   1.0000   1.0000
     1.0000   1.0000   1.0000   1.0000   1.0000   1.0000   1.0000   1.0000
     1.0000   1.0000   1.0000   1.0000   1.0000   1.0000   1.0000   1.0000
     1.0000   1.0000

          k =-0.5000 0.0000 0.2569 (  3805 PWs)   bands (ev):

  -114.1569-114.1568 -68.5465 -68.5459 -68.5013 -68.5012 -68.5008 -68.5004
    -8.2510  -8.1285   2.9227   2.9477   3.5477   3.5690   3.6637   3.7655
     4.4740   4.4974   4.7034   4.8028   5.4553   5.5852   6.1579   6.6845
     7.8456   8.3401

     occupation numbers 
     1.0000   1.0000   1.0000   1.0000   1.0000   1.0000   1.0000   1.0000
     1.0000   1.0000   1.0000   1.0000   1.0000   1.0000   1.0000   1.0000
     1.0000   1.0000   1.0000   1.0000   1.0000   1.0000   1.0000   1.0000
     1.0000   1.0000

          k =-0.5000 0.0000-0.3425 (  3800 PWs)   bands (ev):

  -114.1569-114.1568 -68.5462 -68.5461 -68.5013 -68.5012 -68.5007 -68.5006
    -8.1865  -8.1865   2.8794   2.8794   3.5421   3.5421   3.7013   3.7013
     4.4905   4.4906   4.7532   4.7532   5.5190   5.5190   6.4239   6.4239
     8.2362   8.2363

     occupation numbers 
     1.0000   1.0000   1.0000   1.0000   1.0000   1.0000   1.0000   1.0000
     1.0000   1.0000   1.0000   1.0000   1.0000   1.0000   1.0000   1.0000
     1.0000   1.0000   1.0000   1.0000   1.0000   1.0000   1.0000   1.0000
     1.0000   1.0000

          k =-0.5000 0.0000-0.2569 (  3805 PWs)   bands (ev):

  -114.1569-114.1568 -68.5465 -68.5459 -68.5013 -68.5012 -68.5008 -68.5004
    -8.2510  -8.1285   2.9227   2.9477   3.5477   3.5690   3.6637   3.7655
     4.4740   4.4974   4.7034   4.8028   5.4553   5.5852   6.1579   6.6845
     7.8456   8.3401

     occupation numbers 
     1.0000   1.0000   1.0000   1.0000   1.0000   1.0000   1.0000   1.0000
     1.0000   1.0000   1.0000   1.0000   1.0000   1.0000   1.0000   1.0000
     1.0000   1.0000   1.0000   1.0000   1.0000   1.0000   1.0000   1.0000
     1.0000   1.0000

          k =-0.5000 0.0000-0.1713 (  3819 PWs)   bands (ev):

  -114.1569-114.1568 -68.5467 -68.5456 -68.5015 -68.5013 -68.5008 -68.5002
    -8.3106  -8.0850   3.0259   3.1118   3.5847   3.5936   3.6988   3.8507
     4.4536   4.4748   4.6752   4.8458   5.3954   5.6478   5.9389   6.8770
     7.3161   8.1686

     occupation numbers 
     1.0000   1.0000   1.0000   1.0000   1.0000   1.0000   1.0000   1.0000
     1.0000   1.0000   1.0000   1.0000   1.0000   1.0000   1.0000   1.0000
     1.0000   1.0000   1.0000   1.0000   1.0000   1.0000   1.0000   1.0000
     1.0000   1.0000

          k =-0.5000 0.0000-0.0856 (  3810 PWs)   bands (ev):

  -114.1569-114.1568 -68.5469 -68.5454 -68.5016 -68.5014 -68.5008 -68.5000
    -8.3526  -8.0589   3.1116   3.2759   3.5681   3.6596   3.8305   3.9496
     4.4127   4.4309   4.6838   4.8793   5.3476   5.6429   5.8635   6.6876
     7.1320   7.8917

     occupation numbers 
     1.0000   1.0000   1.0000   1.0000   1.0000   1.0000   1.0000   1.0000
     1.0000   1.0000   1.0000   1.0000   1.0000   1.0000   1.0000   1.0000
     1.0000   1.0000   1.0000   1.0000   1.0000   1.0000   1.0000   1.0000
     1.0000   1.0000

          k =-0.5000 0.1443 0.0000 (  3798 PWs)   bands (ev):

  -114.1569-114.1568 -68.5469 -68.5453 -68.5018 -68.5012 -68.5010 -68.4997
    -8.3618  -8.0541   3.0436   3.2011   3.6130   3.7252   3.8805   4.1752
     4.3613   4.4377   4.6954   4.7918   5.1920   5.5713   6.0520   6.5144
     7.4419   7.7708

     occupation numbers 
     1.0000   1.0000   1.0000   1.0000   1.0000   1.0000   1.0000   1.0000
     1.0000   1.0000   1.0000   1.0000   1.0000   1.0000   1.0000   1.0000
     1.0000   1.0000   1.0000   1.0000   1.0000   1.0000   1.0000   1.0000
     1.0000   1.0000

          k =-0.5000 0.1443 0.0856 (  3806 PWs)   bands (ev):

  -114.1569-114.1568 -68.5469 -68.5454 -68.5018 -68.5012 -68.5010 -68.4998
    -8.3469  -8.0622   3.0078   3.1477   3.6128   3.6914   3.8422   4.0591
     4.4120   4.4597   4.6823   4.7886   5.2083   5.5252   6.1303   6.7238
     7.3940   7.9001

     occupation numbers 
     1.0000   1.0000   1.0000   1.0000   1.0000   1.0000   1.0000   1.0000
     1.0000   1.0000   1.0000   1.0000   1.0000   1.0000   1.0000   1.0000
     1.0000   1.0000   1.0000   1.0000   1.0000   1.0000   1.0000   1.0000
     1.0000   1.0000

          k =-0.5000 0.1443 0.1713 (  3801 PWs)   bands (ev):

  -114.1569-114.1568 -68.5467 -68.5456 -68.5017 -68.5012 -68.5009 -68.4999
    -8.3059  -8.0871   2.9101   3.0092   3.5958   3.6549   3.7770   3.8794
     4.4535   4.5111   4.6634   4.7743   5.2476   5.4522   6.3068   7.1824
     7.2986   8.1603

     occupation numbers 
     1.0000   1.0000   1.0000   1.0000   1.0000   1.0000   1.0000   1.0000
     1.0000   1.0000   1.0000   1.0000   1.0000   1.0000   1.0000   1.0000
     1.0000   1.0000   1.0000   1.0000   1.0000   1.0000   1.0000   1.0000
     1.0000   1.0000

          k =-0.5000 0.1443 0.2569 (  3812 PWs)   bands (ev):

  -114.1569-114.1568 -68.5465 -68.5459 -68.5016 -68.5013 -68.5007 -68.5002
    -8.2478  -8.1290   2.8075   2.8609   3.5834   3.6673   3.6952   3.7624
     4.4833   4.5288   4.6750   4.7476   5.2958   5.3935   6.5392   7.0416
     7.7830   8.3102

     occupation numbers 
     1.0000   1.0000   1.0000   1.0000   1.0000   1.0000   1.0000   1.0000
     1.0000   1.0000   1.0000   1.0000   1.0000   1.0000   1.0000   1.0000
     1.0000   1.0000   1.0000   1.0000   1.0000   1.0000   1.0000   1.0000
     1.0000   1.0000

          k =-0.5000 0.1443-0.3425 (  3812 PWs)   bands (ev):

  -114.1569-114.1568 -68.5462 -68.5461 -68.5015 -68.5014 -68.5005 -68.5004
    -8.1851  -8.1850   2.7817   2.7817   3.6167   3.6168   3.7046   3.7047
     4.5108   4.5109   4.7115   4.7116   5.3443   5.3443   6.7959   6.7959
     8.1840   8.1841

     occupation numbers 
     1.0000   1.0000   1.0000   1.0000   1.0000   1.0000   1.0000   1.0000
     1.0000   1.0000   1.0000   1.0000   1.0000   1.0000   1.0000   1.0000
     1.0000   1.0000   1.0000   1.0000   1.0000   1.0000   1.0000   1.0000
     1.0000   1.0000

          k =-0.5000 0.1443-0.2569 (  3812 PWs)   bands (ev):

  -114.1569-114.1568 -68.5465 -68.5459 -68.5016 -68.5013 -68.5007 -68.5002
    -8.2478  -8.1290   2.8075   2.8609   3.5834   3.6673   3.6952   3.7624
     4.4833   4.5288   4.6750   4.7475   5.2958   5.3935   6.5392   7.0416
     7.7830   8.3102

     occupation numbers 
     1.0000   1.0000   1.0000   1.0000   1.0000   1.0000   1.0000   1.0000
     1.0000   1.0000   1.0000   1.0000   1.0000   1.0000   1.0000   1.0000
     1.0000   1.0000   1.0000   1.0000   1.0000   1.0000   1.0000   1.0000
     1.0000   1.0000

          k =-0.5000 0.1443-0.1713 (  3801 PWs)   bands (ev):

  -114.1569-114.1568 -68.5467 -68.5456 -68.5017 -68.5012 -68.5009 -68.4999
    -8.3059  -8.0871   2.9101   3.0092   3.5958   3.6549   3.7770   3.8794
     4.4535   4.5111   4.6634   4.7743   5.2476   5.4522   6.3068   7.1824
     7.2986   8.1603

     occupation numbers 
     1.0000   1.0000   1.0000   1.0000   1.0000   1.0000   1.0000   1.0000
     1.0000   1.0000   1.0000   1.0000   1.0000   1.0000   1.0000   1.0000
     1.0000   1.0000   1.0000   1.0000   1.0000   1.0000   1.0000   1.0000
     1.0000   1.0000

          k =-0.5000 0.1443-0.0856 (  3806 PWs)   bands (ev):

  -114.1569-114.1568 -68.5469 -68.5454 -68.5018 -68.5012 -68.5010 -68.4998
    -8.3469  -8.0622   3.0078   3.1477   3.6128   3.6914   3.8422   4.0592
     4.4120   4.4597   4.6823   4.7886   5.2083   5.5252   6.1303   6.7238
     7.3940   7.9001

     occupation numbers 
     1.0000   1.0000   1.0000   1.0000   1.0000   1.0000   1.0000   1.0000
     1.0000   1.0000   1.0000   1.0000   1.0000   1.0000   1.0000   1.0000
     1.0000   1.0000   1.0000   1.0000   1.0000   1.0000   1.0000   1.0000
     1.0000   1.0000

          k =-0.5000-0.8660-0.0000 (  3796 PWs)   bands (ev):

  -114.1569-114.1568 -68.5469 -68.5453 -68.5020 -68.5012 -68.5010 -68.4996
    -8.3557  -8.0580   2.9584   3.0943   3.6672   3.7887   3.8227   4.2295
     4.4263   4.4855   4.6944   4.7178   5.0708   5.4202   6.3728   6.4657
     7.7040   7.7790

     occupation numbers 
     1.0000   1.0000   1.0000   1.0000   1.0000   1.0000   1.0000   1.0000
     1.0000   1.0000   1.0000   1.0000   1.0000   1.0000   1.0000   1.0000
     1.0000   1.0000   1.0000   1.0000   1.0000   1.0000   1.0000   1.0000
     1.0000   1.0000

          k =-0.5000-0.8660 0.0856 (  3794 PWs)   bands (ev):

  -114.1569-114.1568 -68.5469 -68.5454 -68.5019 -68.5012 -68.5010 -68.4996
    -8.3412  -8.0657   2.9173   3.0484   3.6687   3.7295   3.8123   4.1320
     4.4346   4.5178   4.6780   4.7176   5.1000   5.3684   6.5236   6.6055
     7.6635   7.8992

     occupation numbers 
     1.0000   1.0000   1.0000   1.0000   1.0000   1.0000   1.0000   1.0000
     1.0000   1.0000   1.0000   1.0000   1.0000   1.0000   1.0000   1.0000
     1.0000   1.0000   1.0000   1.0000   1.0000   1.0000   1.0000   1.0000
     1.0000   1.0000

          k =-0.5000-0.8660 0.1713 (  3794 PWs)   bands (ev):

  -114.1569-114.1568 -68.5467 -68.5456 -68.5018 -68.5013 -68.5008 -68.4998
    -8.3011  -8.0894   2.8126   2.9268   3.6455   3.6749   3.7847   3.9405
     4.4581   4.5755   4.6370   4.7108   5.1533   5.3012   6.6807   7.1194
     7.5462   8.1401

     occupation numbers 
     1.0000   1.0000   1.0000   1.0000   1.0000   1.0000   1.0000   1.0000
     1.0000   1.0000   1.0000   1.0000   1.0000   1.0000   1.0000   1.0000
     1.0000   1.0000   1.0000   1.0000   1.0000   1.0000   1.0000   1.0000
     1.0000   1.0000

          k =-0.5000-0.8660 0.2569 (  3800 PWs)   bands (ev):

  -114.1569-114.1568 -68.5465 -68.5459 -68.5017 -68.5014 -68.5006 -68.5000
    -8.2445  -8.1296   2.7147   2.7851   3.6239   3.6895   3.7489   3.7752
     4.4934   4.5867   4.6259   4.6934   5.1994   5.2618   6.8995   7.3645
     7.6764   8.2610

     occupation numbers 
     1.0000   1.0000   1.0000   1.0000   1.0000   1.0000   1.0000   1.0000
     1.0000   1.0000   1.0000   1.0000   1.0000   1.0000   1.0000   1.0000
     1.0000   1.0000   1.0000   1.0000   1.0000   1.0000   1.0000   1.0000
     1.0000   1.0000

          k =-0.5000-0.8660-0.3425 (  3792 PWs)   bands (ev):

  -114.1569-114.1568 -68.5462 -68.5461 -68.5016 -68.5015 -68.5004 -68.5003
    -8.1836  -8.1836   2.6995   2.6995   3.6692   3.6693   3.7148   3.7148
     4.5372   4.5373   4.6650   4.6650   5.2334   5.2334   7.1394   7.1394
     8.1008   8.1009

     occupation numbers 
     1.0000   1.0000   1.0000   1.0000   1.0000   1.0000   1.0000   1.0000
     1.0000   1.0000   1.0000   1.0000   1.0000   1.0000   1.0000   1.0000
     1.0000   1.0000   1.0000   1.0000   1.0000   1.0000   1.0000   1.0000
     1.0000   1.0000

     highest occupied level (ev):     8.9452

!    total energy              =    -987.07088623 Ry
     Harris-Foulkes estimate   =    -987.07088626 Ry
     estimated scf accuracy    <       0.00000008 Ry

     The total energy is the sum of the following terms:

     one-electron contribution =    -798.84054836 Ry
     hartree contribution      =     421.20541597 Ry
     xc contribution           =     -98.08554705 Ry
     ewald contribution        =    -511.35020679 Ry

     convergence has been achieved in   7 iterations

     Forces acting on atoms (cartesian axes, Ry/au):

     atom    1 type  2   force =    -0.00000022    0.00000128   -0.01318019
     atom    2 type  2   force =    -0.00000003    0.00000020   -0.01318418
     atom    3 type  1   force =    -0.00000008    0.00000146    0.01317332
     atom    4 type  1   force =     0.00000032   -0.00000294    0.01319104
     The non-local contrib.  to forces
     atom    1 type  2   force =     0.00000052   -0.00000314   -0.04402129
     atom    2 type  2   force =     0.00000029    0.00000024   -0.04401998
     atom    3 type  1   force =     0.00000093   -0.00000480   -0.11818580
     atom    4 type  1   force =    -0.00000037   -0.00000109   -0.11817981
     The ionic contribution  to forces
     atom    1 type  2   force =    -0.00000474    0.00003817    0.67262916
     atom    2 type  2   force =    -0.00000905    0.00000378    0.67263032
     atom    3 type  1   force =     0.00001140   -0.00001521   -0.67262550
     atom    4 type  1   force =     0.00000239   -0.00002675   -0.67263397
     The local contribution  to forces
     atom    1 type  2   force =     0.00000456   -0.00003429   -0.64215925
     atom    2 type  2   force =     0.00000947   -0.00000410   -0.64215087
     atom    3 type  1   force =    -0.00001398    0.00002142    0.80415615
     atom    4 type  1   force =    -0.00000181    0.00002722    0.80413917
     The core correction contribution to forces
     atom    1 type  2   force =     0.00000000    0.00000001    0.00023902
     atom    2 type  2   force =     0.00000001   -0.00000001    0.00023903
     atom    3 type  1   force =     0.00000000    0.00000000    0.00000000
     atom    4 type  1   force =     0.00000000    0.00000000    0.00000000
     The Hubbard contrib.    to forces
     atom    1 type  2   force =     0.00000000    0.00000000    0.00000000
     atom    2 type  2   force =     0.00000000    0.00000000    0.00000000
     atom    3 type  1   force =     0.00000000    0.00000000    0.00000000
     atom    4 type  1   force =     0.00000000    0.00000000    0.00000000
     The SCF correction term to forces
     atom    1 type  2   force =     0.00000000    0.00000000    0.00000000
     atom    2 type  2   force =     0.00000000    0.00000000    0.00000000
     atom    3 type  1   force =     0.00000000    0.00000000    0.00000000
     atom    4 type  1   force =     0.00000000    0.00000000    0.00000000

     Total force =     0.000000     Total SCF correction =     0.000000


     Computing stress (Cartesian axis) and pressure

          total   stress  (Ry/bohr**3)                   (kbar)     P=   -0.04
  -0.00000001   0.00000000  -0.00000001         -0.00      0.00     -0.00
   0.00000000  -0.00000002   0.00000001          0.00     -0.00      0.00
  -0.00000001   0.00000001  -0.00000072         -0.00      0.00     -0.11

     kinetic stress (kbar)  34243.22     -0.00     -0.00
                               -0.00  34243.22      0.00
                               -0.00      0.00  34617.28

     local   stress (kbar)  -3596.32     -0.03     -0.03
                               -0.03  -3596.48      0.07
                               -0.03      0.07  -4776.96

     nonloc. stress (kbar)  -1668.32      0.00      0.00
                                0.00  -1668.32     -0.00
                                0.00     -0.00  -1819.15

     hartree stress (kbar)  65113.08      0.01      0.01
                                0.01  65113.15     -0.03
                                0.01     -0.03  66810.47

     exc-cor stress (kbar) -14348.53      0.00      0.00
                                0.00 -14348.53     -0.00
                                0.00     -0.00 -14354.44

     corecor stress (kbar)   -252.34      0.00      0.00
                                0.00   -252.34     -0.00
                                0.00     -0.00   -253.06

     ewald   stress (kbar) -79490.80      0.02      0.02
                                0.02 -79490.71     -0.04
                                0.02     -0.04 -80224.24

     hubbard stress (kbar)      0.00      0.00      0.00
                                0.00      0.00      0.00
                                0.00      0.00      0.00

     london  stress (kbar)      0.00      0.00      0.00
                                0.00      0.00      0.00
                                0.00      0.00      0.00

     DFT-D3  stress (kbar)      0.00      0.00      0.00
                                0.00      0.00      0.00
                                0.00      0.00      0.00

     XDM     stress (kbar)      0.00      0.00      0.00
                                0.00      0.00      0.00
                                0.00      0.00      0.00

     dft-nl  stress (kbar)      0.00      0.00      0.00
                                0.00      0.00      0.00
                                0.00      0.00      0.00

     TS-vdW  stress (kbar)      0.00      0.00      0.00
                                0.00      0.00      0.00
                                0.00      0.00      0.00



     Writing output data file ZnO.save/
 
     init_run     :      0.50s CPU      0.73s WALL (       1 calls)
     electrons    :      6.95s CPU      7.44s WALL (       1 calls)
     forces       :      0.15s CPU      0.16s WALL (       1 calls)
     stress       :      0.28s CPU      0.29s WALL (       1 calls)

     Called by init_run:
     wfcinit      :      0.36s CPU      0.46s WALL (       1 calls)
     wfcinit:atom :      0.00s CPU      0.00s WALL (      65 calls)
     wfcinit:wfcr :      0.34s CPU      0.43s WALL (      65 calls)
     potinit      :      0.06s CPU      0.08s WALL (       1 calls)
     hinit0       :      0.06s CPU      0.14s WALL (       1 calls)

     Called by electrons:
     c_bands      :      5.86s CPU      6.22s WALL (       7 calls)
     sum_band     :      0.84s CPU      0.93s WALL (       7 calls)
     v_of_rho     :      0.22s CPU      0.24s WALL (       8 calls)
     v_h          :      0.00s CPU      0.01s WALL (       8 calls)
     v_xc         :      0.27s CPU      0.28s WALL (      10 calls)
     newd         :      0.04s CPU      0.05s WALL (       8 calls)
     mix_rho      :      0.01s CPU      0.02s WALL (       7 calls)

     Called by c_bands:
     init_us_2    :      0.07s CPU      0.08s WALL (    1105 calls)
     cegterg      :      5.54s CPU      5.76s WALL (     455 calls)

     Called by sum_band:
     sum_band:bec :      0.01s CPU      0.01s WALL (     455 calls)
     addusdens    :      0.03s CPU      0.08s WALL (       7 calls)

     Called by *egterg:
     h_psi        :      3.46s CPU      3.59s WALL (    1455 calls)
     s_psi        :      0.11s CPU      0.11s WALL (    1455 calls)
     g_psi        :      0.01s CPU      0.01s WALL (     935 calls)
     cdiaghg      :      1.45s CPU      1.57s WALL (    1390 calls)
     cegterg:over :      0.35s CPU      0.40s WALL (     935 calls)
     cegterg:upda :      0.19s CPU      0.19s WALL (     935 calls)
     cegterg:last :      0.13s CPU      0.13s WALL (     455 calls)
     cdiaghg:chol :      0.08s CPU      0.12s WALL (    1390 calls)
     cdiaghg:inve :      0.02s CPU      0.03s WALL (    1390 calls)
     cdiaghg:para :      0.14s CPU      0.15s WALL (    2780 calls)

     Called by h_psi:
     h_psi:pot    :      3.45s CPU      3.58s WALL (    1455 calls)
     h_psi:calbec :      0.19s CPU      0.21s WALL (    1455 calls)
     vloc_psi     :      3.14s CPU      3.25s WALL (    1455 calls)
     add_vuspsi   :      0.11s CPU      0.12s WALL (    1455 calls)

     General routines
     calbec       :      0.31s CPU      0.33s WALL (    2235 calls)
     fft          :      0.04s CPU      0.07s WALL (     127 calls)
     ffts         :      0.00s CPU      0.01s WALL (      15 calls)
     fftw         :      3.60s CPU      3.73s WALL (   73966 calls)
     interpolate  :      0.00s CPU      0.01s WALL (       8 calls)
 
     Parallel routines
     fft_scatt_xy :      0.51s CPU      0.52s WALL (   74108 calls)
     fft_scatt_yz :      1.87s CPU      1.94s WALL (   74108 calls)
 
     PWSCF        :      8.19s CPU      9.92s WALL

 
   This run was terminated on:  15:13:48  16Jun2022            

=------------------------------------------------------------------------------=
   JOB DONE.
=------------------------------------------------------------------------------=
