
     Program PWSCF v.6.4.1 starts on 29Apr2021 at 15:14: 2 

     This program is part of the open-source Quantum ESPRESSO suite
     for quantum simulation of materials; please cite
         "P. Giannozzi et al., J. Phys.:Condens. Matter 21 395502 (2009);
         "P. Giannozzi et al., J. Phys.:Condens. Matter 29 465901 (2017);
          URL http://www.quantum-espresso.org", 
     in publications or presentations arising from this work. More details at
     http://www.quantum-espresso.org/quote

     Parallel version (MPI), running on    64 processors

     MPI processes distributed on     1 nodes
     K-points division:     npool     =       4
     R & G space division:  proc/nbgrp/npool/nimage =      16
     Waiting for input...
     Reading input from standard input
Warning: card &CELL ignored
Warning: card   CELL_DYNAMICS     = 'BFGS' ignored
Warning: card   PRESS_CONV_THR    = 0.5D0 ignored
Warning: card   CELL_DOFREE = 'Y' ignored
Warning: card / ignored

     Current dimensions of program PWSCF are:
     Max number of different atomic species (ntypx) = 10
     Max number of k-points (npk) =  40000
     Max angular momentum in pseudopotentials (lmaxx) =  3

     Subspace diagonalization in iterative solution of the eigenvalue problem:
     one sub-group per band group will be used
     scalapack distributed-memory algorithm (size of sub-group:  2*  2 procs)

 
     Parallelization info
     --------------------
     sticks:   dense  smooth     PW     G-vecs:    dense   smooth      PW
     Min        1313     700    185               257855   100420   13713
     Max        1314     701    186               257860   100425   13718
     Sum       21017   11205   2965              4125711  1606743  219435
 


     bravais-lattice index     =            0
     lattice parameter (alat)  =      37.7945  a.u.
     unit-cell volume          =   16622.4411 (a.u.)^3
     number of atoms/cell      =           15
     number of atomic types    =            2
     number of electrons       =       168.00
     number of Kohn-Sham states=           84
     kinetic-energy cutoff     =      80.0000  Ry
     charge density cutoff     =     600.0000  Ry
     convergence threshold     =      1.0E-11
     mixing beta               =       0.5000
     number of iterations used =            8  plain     mixing
     Exchange-correlation      = SLA  PW   PSX  PSC ( 1  4 10  8 0 0)
     Using LIBXC version       =    4   3   4
     nstep                     =          200


     celldm(1)=  37.794523  celldm(2)=   0.000000  celldm(3)=   0.000000
     celldm(4)=   0.000000  celldm(5)=   0.000000  celldm(6)=   0.000000

     crystal axes: (cart. coord. in units of alat)
               a(1) = (   1.000000   0.000000   0.000000 )  
               a(2) = (   0.000000   0.307899   0.000000 )  
               a(3) = (   0.000000   0.000000   1.000000 )  

     reciprocal axes: (cart. coord. in units 2 pi/alat)
               b(1) = (  1.000000  0.000000  0.000000 )  
               b(2) = (  0.000000  3.247819  0.000000 )  
               b(3) = (  0.000000  0.000000  1.000000 )  


     PseudoPot. # 1 for Ga read from file:
     ./GBRV_PBEsol/ga_pbesol_v1.4.uspp.F.UPF
     MD5 check sum: c51a1280f7300f419a8cd4df5a064fc3
     Pseudo is Ultrasoft + core correction, Zval = 19.0
     Generated by new atomic code, or converted to UPF format
     Using radial grid of  871 points,  6 beta functions with: 
                l(1) =   0
                l(2) =   0
                l(3) =   1
                l(4) =   1
                l(5) =   2
                l(6) =   2
     Q(r) pseudized with  8 coefficients,  rinner =    1.250   1.250   1.250
                                                       1.250   1.250

     PseudoPot. # 2 for Se read from file:
     ./GBRV_PBEsol/se_pbesol_v1.uspp.F.UPF
     MD5 check sum: a3b4745ad650bb7419ce2e0d5f176975
     Pseudo is Ultrasoft + core correction, Zval =  6.0
     Generated by new atomic code, or converted to UPF format
     Using radial grid of  877 points,  6 beta functions with: 
                l(1) =   0
                l(2) =   0
                l(3) =   1
                l(4) =   1
                l(5) =   2
                l(6) =   2
     Q(r) pseudized with  8 coefficients,  rinner =    1.300   1.300   1.300
                                                       1.300   1.300

     atomic species   valence    mass     pseudopotential
        Ga            19.00    69.72300     Ga( 1.00)
        Se             6.00    78.97100     Se( 1.00)

     No symmetry found


                                    s                        frac. trans.

      isym =  1     identity                                     

 cryst.   s( 1) = (     1          0          0      )
                  (     0          1          0      )
                  (     0          0          1      )

 cart.    s( 1) = (  1.0000000  0.0000000  0.0000000 )
                  (  0.0000000  1.0000000  0.0000000 )
                  (  0.0000000  0.0000000  1.0000000 )


   Cartesian axes

     site n.     atom                  positions (alat units)
         1           Ga  tau(   1) = (   0.5248346   0.0298527   0.6479384  )
         2           Ga  tau(   2) = (   0.4328083   0.2600297   0.4430842  )
         3           Ga  tau(   3) = (   0.6168898   0.2600298   0.4430972  )
         4           Ga  tau(   4) = (   0.4408536   0.1556548   0.5941863  )
         5           Ga  tau(   5) = (   0.6088232   0.1556550   0.5941983  )
         6           Ga  tau(   6) = (   0.5248515   0.0876637   0.4080439  )
         7           Se  tau(   7) = (   0.3667774   0.2214112   0.5282208  )
         8           Se  tau(   8) = (   0.6829086   0.2214116   0.5282433  )
         9           Se  tau(   9) = (   0.5248337   0.2188337   0.6593928  )
        10           Se  tau(  10) = (   0.5248533   0.2068090   0.3827595  )
        11           Se  tau(  11) = (   0.5248430   0.0880051   0.5301072  )
        12           Se  tau(  12) = (   0.4150396   0.0698893   0.6707808  )
        13           Se  tau(  13) = (   0.6346264   0.0698893   0.6707964  )
        14           Se  tau(  14) = (   0.4163154   0.0483128   0.3800278  )
        15           Se  tau(  15) = (   0.6333914   0.0483127   0.3800429  )

   Crystallographic axes

     site n.     atom                  positions (cryst. coord.)
         1           Ga  tau(   1) = (  0.5248346  0.0969562  0.6479384  )
         2           Ga  tau(   2) = (  0.4328083  0.8445294  0.4430842  )
         3           Ga  tau(   3) = (  0.6168898  0.8445297  0.4430972  )
         4           Ga  tau(   4) = (  0.4408536  0.5055387  0.5941863  )
         5           Ga  tau(   5) = (  0.6088232  0.5055392  0.5941983  )
         6           Ga  tau(   6) = (  0.5248515  0.2847158  0.4080439  )
         7           Se  tau(   7) = (  0.3667774  0.7191036  0.5282208  )
         8           Se  tau(   8) = (  0.6829086  0.7191047  0.5282433  )
         9           Se  tau(   9) = (  0.5248337  0.7107323  0.6593928  )
        10           Se  tau(  10) = (  0.5248533  0.6716780  0.3827595  )
        11           Se  tau(  11) = (  0.5248430  0.2858245  0.5301072  )
        12           Se  tau(  12) = (  0.4150396  0.2269877  0.6707808  )
        13           Se  tau(  13) = (  0.6346264  0.2269879  0.6707964  )
        14           Se  tau(  14) = (  0.4163154  0.1569112  0.3800278  )
        15           Se  tau(  15) = (  0.6333914  0.1569110  0.3800429  )

     number of k points=     5
                       cart. coord. in units 2pi/alat
        k(    1) = (   0.0000000   0.0000000   0.0000000), wk =   0.2500000
        k(    2) = (   0.0000000   0.4059774   0.0000000), wk =   0.5000000
        k(    3) = (   0.0000000   0.8119547   0.0000000), wk =   0.5000000
        k(    4) = (   0.0000000   1.2179321   0.0000000), wk =   0.5000000
        k(    5) = (   0.0000000  -1.6239094   0.0000000), wk =   0.2500000

                       cryst. coord.
        k(    1) = (   0.0000000   0.0000000   0.0000000), wk =   0.2500000
        k(    2) = (   0.0000000   0.1250000   0.0000000), wk =   0.5000000
        k(    3) = (   0.0000000   0.2500000   0.0000000), wk =   0.5000000
        k(    4) = (   0.0000000   0.3750000   0.0000000), wk =   0.5000000
        k(    5) = (   0.0000000  -0.5000000   0.0000000), wk =   0.2500000

     Dense  grid:  4125711 G-vectors     FFT dimensions: ( 300,  96, 300)

     Smooth grid:  1606743 G-vectors     FFT dimensions: ( 216,  72, 216)

     Dynamical RAM for                 wfc:      16.09 MB

     Dynamical RAM for     wfc (w. buffer):      48.27 MB

     Dynamical RAM for           str. fact:       7.87 MB

     Dynamical RAM for           local pot:       0.00 MB

     Dynamical RAM for          nlocal pot:      51.72 MB

     Dynamical RAM for                qrad:      23.61 MB

     Dynamical RAM for          rho,v,vnew:      24.33 MB

     Dynamical RAM for               rhoin:       8.11 MB

     Dynamical RAM for            rho*nmix:      62.95 MB

     Dynamical RAM for           G-vectors:      15.52 MB

     Dynamical RAM for          h,s,v(r/c):       1.29 MB

     Dynamical RAM for          <psi|beta>:       0.35 MB

     Dynamical RAM for                 psi:      64.36 MB

     Dynamical RAM for                hpsi:      64.36 MB

     Dynamical RAM for                spsi:      64.36 MB

     Dynamical RAM for      wfcinit/wfcrot:      41.64 MB

     Dynamical RAM for           addusdens:     194.76 MB

     Dynamical RAM for          addusforce:     227.28 MB

     Dynamical RAM for         addusstress:     199.19 MB

     Estimated static dynamical RAM per process >     275.06 MB

     Estimated max dynamical RAM per process >     502.34 MB

     Estimated total dynamical RAM >      31.40 GB

     Initial potential from superposition of free atoms

     starting charge  161.99940, renormalised to  168.00000

     negative rho (up, down):  4.970E-04 0.000E+00
     Starting wfcs are  108 randomized atomic wfcs

     total cpu time spent up to now is       12.1 secs

     Self-consistent Calculation

     iteration #  1     ecut=    80.00 Ry     beta= 0.50
     Davidson diagonalization with overlap
     ethr =  1.00E-02,  avg # of iterations =  3.0

     negative rho (up, down):  3.329E-05 0.000E+00

     total cpu time spent up to now is       25.3 secs

     total energy              =   -2868.74568063 Ry
     Harris-Foulkes estimate   =   -2886.01540432 Ry
     estimated scf accuracy    <      24.06734322 Ry

     iteration #  2     ecut=    80.00 Ry     beta= 0.50
     Davidson diagonalization with overlap
     ethr =  1.00E-02,  avg # of iterations =  3.0

     negative rho (up, down):  1.372E-04 0.000E+00

     total cpu time spent up to now is       40.2 secs

     total energy              =   -2877.86143587 Ry
     Harris-Foulkes estimate   =   -2883.26261961 Ry
     estimated scf accuracy    <      11.18030505 Ry

     iteration #  3     ecut=    80.00 Ry     beta= 0.50
     Davidson diagonalization with overlap
     ethr =  6.65E-03,  avg # of iterations =  3.4

     negative rho (up, down):  3.024E-04 0.000E+00

     total cpu time spent up to now is       53.2 secs

     total energy              =   -2879.86696886 Ry
     Harris-Foulkes estimate   =   -2880.54605054 Ry
     estimated scf accuracy    <       1.91141162 Ry

     iteration #  4     ecut=    80.00 Ry     beta= 0.50
     Davidson diagonalization with overlap
     ethr =  1.14E-03,  avg # of iterations =  2.8

     negative rho (up, down):  3.400E-04 0.000E+00

     total cpu time spent up to now is       64.9 secs

     total energy              =   -2880.07732875 Ry
     Harris-Foulkes estimate   =   -2880.13324502 Ry
     estimated scf accuracy    <       0.15635722 Ry

     iteration #  5     ecut=    80.00 Ry     beta= 0.50
     Davidson diagonalization with overlap
     ethr =  9.31E-05,  avg # of iterations =  3.0

     negative rho (up, down):  3.376E-04 0.000E+00

     total cpu time spent up to now is       77.2 secs

     total energy              =   -2880.07773380 Ry
     Harris-Foulkes estimate   =   -2880.09608943 Ry
     estimated scf accuracy    <       0.03343300 Ry

     iteration #  6     ecut=    80.00 Ry     beta= 0.50
     Davidson diagonalization with overlap
     ethr =  1.99E-05,  avg # of iterations =  2.8

     negative rho (up, down):  3.679E-04 0.000E+00

     total cpu time spent up to now is       90.9 secs

     total energy              =   -2880.08617149 Ry
     Harris-Foulkes estimate   =   -2880.08756695 Ry
     estimated scf accuracy    <       0.00463679 Ry

     iteration #  7     ecut=    80.00 Ry     beta= 0.50
     Davidson diagonalization with overlap
     ethr =  2.76E-06,  avg # of iterations =  3.0

     negative rho (up, down):  3.808E-04 0.000E+00

     total cpu time spent up to now is      103.0 secs

     total energy              =   -2880.08636542 Ry
     Harris-Foulkes estimate   =   -2880.08696383 Ry
     estimated scf accuracy    <       0.00146436 Ry

     iteration #  8     ecut=    80.00 Ry     beta= 0.50
     Davidson diagonalization with overlap
     ethr =  8.72E-07,  avg # of iterations =  2.4

     negative rho (up, down):  3.897E-04 0.000E+00

     total cpu time spent up to now is      115.6 secs

     total energy              =   -2880.08647975 Ry
     Harris-Foulkes estimate   =   -2880.08656389 Ry
     estimated scf accuracy    <       0.00015213 Ry

     iteration #  9     ecut=    80.00 Ry     beta= 0.50
     Davidson diagonalization with overlap
     ethr =  9.06E-08,  avg # of iterations =  4.0

     negative rho (up, down):  3.951E-04 0.000E+00

     total cpu time spent up to now is      130.8 secs

     total energy              =   -2880.08654092 Ry
     Harris-Foulkes estimate   =   -2880.08654392 Ry
     estimated scf accuracy    <       0.00000999 Ry

     iteration # 10     ecut=    80.00 Ry     beta= 0.50
     Davidson diagonalization with overlap
     ethr =  5.95E-09,  avg # of iterations =  3.0

     negative rho (up, down):  3.970E-04 0.000E+00

     total cpu time spent up to now is      143.4 secs

     total energy              =   -2880.08654302 Ry
     Harris-Foulkes estimate   =   -2880.08654321 Ry
     estimated scf accuracy    <       0.00000068 Ry

     iteration # 11     ecut=    80.00 Ry     beta= 0.50
     Davidson diagonalization with overlap
     ethr =  4.07E-10,  avg # of iterations =  4.0

     negative rho (up, down):  3.975E-04 0.000E+00

     total cpu time spent up to now is      157.9 secs

     total energy              =   -2880.08654323 Ry
     Harris-Foulkes estimate   =   -2880.08654331 Ry
     estimated scf accuracy    <       0.00000018 Ry

     iteration # 12     ecut=    80.00 Ry     beta= 0.50
     Davidson diagonalization with overlap
     ethr =  1.05E-10,  avg # of iterations =  3.4

     negative rho (up, down):  3.979E-04 0.000E+00

     total cpu time spent up to now is      170.3 secs

     total energy              =   -2880.08654327 Ry
     Harris-Foulkes estimate   =   -2880.08654328 Ry
     estimated scf accuracy    <       0.00000004 Ry

     iteration # 13     ecut=    80.00 Ry     beta= 0.50
     Davidson diagonalization with overlap
     ethr =  2.34E-11,  avg # of iterations =  3.4

     negative rho (up, down):  3.981E-04 0.000E+00

     total cpu time spent up to now is      183.0 secs

     total energy              =   -2880.08654328 Ry
     Harris-Foulkes estimate   =   -2880.08654328 Ry
     estimated scf accuracy    <       0.00000001 Ry

     iteration # 14     ecut=    80.00 Ry     beta= 0.50
     Davidson diagonalization with overlap
     ethr =  7.10E-12,  avg # of iterations =  3.0

     negative rho (up, down):  3.982E-04 0.000E+00

     total cpu time spent up to now is      195.6 secs

     total energy              =   -2880.08654328 Ry
     Harris-Foulkes estimate   =   -2880.08654328 Ry
     estimated scf accuracy    <          3.6E-10 Ry

     iteration # 15     ecut=    80.00 Ry     beta= 0.50
     Davidson diagonalization with overlap
     ethr =  2.15E-13,  avg # of iterations =  5.0

     negative rho (up, down):  3.982E-04 0.000E+00

     total cpu time spent up to now is      215.7 secs

     total energy              =   -2880.08654328 Ry
     Harris-Foulkes estimate   =   -2880.08654328 Ry
     estimated scf accuracy    <          5.2E-11 Ry

     iteration # 16     ecut=    80.00 Ry     beta= 0.50
     Davidson diagonalization with overlap
     ethr =  1.00E-13,  avg # of iterations =  2.0

     negative rho (up, down):  3.982E-04 0.000E+00

     total cpu time spent up to now is      227.1 secs

     total energy              =   -2880.08654328 Ry
     Harris-Foulkes estimate   =   -2880.08654328 Ry
     estimated scf accuracy    <          1.3E-11 Ry

     iteration # 17     ecut=    80.00 Ry     beta= 0.50
     Davidson diagonalization with overlap
     ethr =  1.00E-13,  avg # of iterations =  1.0

     negative rho (up, down):  3.982E-04 0.000E+00

     total cpu time spent up to now is      237.4 secs

     End of self-consistent calculation

          k = 0.0000 0.0000 0.0000 (200813 PWs)   bands (ev):

   -98.5140 -98.5140 -98.4086 -98.4086 -98.3688 -98.3688 -98.1613 -98.1255
   -98.0961 -97.8571 -97.8570 -97.8214 -97.8214 -97.7893 -97.7893 -97.7662
   -97.6917 -97.6487 -19.2098 -19.1502 -19.1484 -19.0741 -19.0489 -18.9945
   -18.9944 -18.9745 -18.9660 -18.9595 -18.8546 -18.8077 -18.7223 -18.6721
   -18.6694 -18.6120 -18.5875 -18.5254 -18.5056 -18.4614 -18.4110 -18.3912
   -18.3719 -18.3527 -18.3378 -18.3314 -18.3303 -18.2520 -18.2509 -18.2349
   -17.5764 -17.0811 -16.3227 -16.1465 -16.0827 -15.9714 -15.8339 -15.4564
   -15.2225 -10.6102 -10.3959 -10.0364  -9.6648  -9.4627  -8.3222  -8.0543
    -7.5118  -7.3496  -7.1123  -6.6007  -6.5232  -6.4080  -6.3242  -6.2380
    -6.1660  -6.0725  -5.9027  -5.6940  -5.0990  -4.9545  -4.9154  -4.8470
    -4.7568  -4.6123  -4.0894  -4.0318

     occupation numbers 
     1.0000   1.0000   1.0000   1.0000   1.0000   1.0000   1.0000   1.0000
     1.0000   1.0000   1.0000   1.0000   1.0000   1.0000   1.0000   1.0000
     1.0000   1.0000   1.0000   1.0000   1.0000   1.0000   1.0000   1.0000
     1.0000   1.0000   1.0000   1.0000   1.0000   1.0000   1.0000   1.0000
     1.0000   1.0000   1.0000   1.0000   1.0000   1.0000   1.0000   1.0000
     1.0000   1.0000   1.0000   1.0000   1.0000   1.0000   1.0000   1.0000
     1.0000   1.0000   1.0000   1.0000   1.0000   1.0000   1.0000   1.0000
     1.0000   1.0000   1.0000   1.0000   1.0000   1.0000   1.0000   1.0000
     1.0000   1.0000   1.0000   1.0000   1.0000   1.0000   1.0000   1.0000
     1.0000   1.0000   1.0000   1.0000   1.0000   1.0000   1.0000   1.0000
     1.0000   1.0000   1.0000   1.0000

          k = 0.0000 0.4060 0.0000 (200873 PWs)   bands (ev):

   -98.5140 -98.5140 -98.4086 -98.4086 -98.3688 -98.3688 -98.1613 -98.1255
   -98.0961 -97.8571 -97.8570 -97.8214 -97.8214 -97.7893 -97.7893 -97.7662
   -97.6917 -97.6487 -19.2089 -19.1502 -19.1482 -19.0741 -19.0503 -18.9947
   -18.9941 -18.9745 -18.9656 -18.9597 -18.8537 -18.8096 -18.7224 -18.6723
   -18.6694 -18.6127 -18.5858 -18.5251 -18.5045 -18.4616 -18.4108 -18.3911
   -18.3732 -18.3530 -18.3381 -18.3306 -18.3304 -18.2521 -18.2517 -18.2351
   -17.5427 -17.0596 -16.3158 -16.1902 -16.0847 -15.9736 -15.8531 -15.4566
   -15.2601 -10.6174 -10.3316 -10.0739  -9.6012  -9.4822  -8.4655  -7.9454
    -7.4391  -7.3574  -7.1133  -6.6256  -6.6000  -6.4159  -6.2981  -6.2106
    -6.1457  -6.0184  -5.7768  -5.6963  -5.2076  -4.9687  -4.9185  -4.8871
    -4.6699  -4.6016  -4.0823  -4.0615

     occupation numbers 
     1.0000   1.0000   1.0000   1.0000   1.0000   1.0000   1.0000   1.0000
     1.0000   1.0000   1.0000   1.0000   1.0000   1.0000   1.0000   1.0000
     1.0000   1.0000   1.0000   1.0000   1.0000   1.0000   1.0000   1.0000
     1.0000   1.0000   1.0000   1.0000   1.0000   1.0000   1.0000   1.0000
     1.0000   1.0000   1.0000   1.0000   1.0000   1.0000   1.0000   1.0000
     1.0000   1.0000   1.0000   1.0000   1.0000   1.0000   1.0000   1.0000
     1.0000   1.0000   1.0000   1.0000   1.0000   1.0000   1.0000   1.0000
     1.0000   1.0000   1.0000   1.0000   1.0000   1.0000   1.0000   1.0000
     1.0000   1.0000   1.0000   1.0000   1.0000   1.0000   1.0000   1.0000
     1.0000   1.0000   1.0000   1.0000   1.0000   1.0000   1.0000   1.0000
     1.0000   1.0000   1.0000   1.0000

          k = 0.0000 0.8120 0.0000 (200909 PWs)   bands (ev):

   -98.5140 -98.5140 -98.4086 -98.4086 -98.3688 -98.3688 -98.1613 -98.1255
   -98.0961 -97.8571 -97.8570 -97.8214 -97.8214 -97.7893 -97.7893 -97.7662
   -97.6917 -97.6487 -19.2066 -19.1502 -19.1477 -19.0741 -19.0539 -18.9950
   -18.9933 -18.9746 -18.9647 -18.9600 -18.8512 -18.8144 -18.7228 -18.6725
   -18.6695 -18.6140 -18.5823 -18.5243 -18.5022 -18.4619 -18.4101 -18.3908
   -18.3759 -18.3537 -18.3390 -18.3304 -18.3286 -18.2534 -18.2526 -18.2356
   -17.4478 -17.0093 -16.3054 -16.2984 -16.0873 -15.9798 -15.9067 -15.4570
   -15.3449 -10.6432 -10.1597 -10.1277  -9.5288  -9.4992  -8.6881  -7.7549
    -7.3918  -7.3500  -7.0918  -6.6542  -6.5732  -6.5169  -6.3288  -6.0858
    -6.0302  -5.8382  -5.7757  -5.6398  -5.3432  -5.0293  -4.9756  -4.8699
    -4.6020  -4.5567  -4.1925  -3.9889

     occupation numbers 
     1.0000   1.0000   1.0000   1.0000   1.0000   1.0000   1.0000   1.0000
     1.0000   1.0000   1.0000   1.0000   1.0000   1.0000   1.0000   1.0000
     1.0000   1.0000   1.0000   1.0000   1.0000   1.0000   1.0000   1.0000
     1.0000   1.0000   1.0000   1.0000   1.0000   1.0000   1.0000   1.0000
     1.0000   1.0000   1.0000   1.0000   1.0000   1.0000   1.0000   1.0000
     1.0000   1.0000   1.0000   1.0000   1.0000   1.0000   1.0000   1.0000
     1.0000   1.0000   1.0000   1.0000   1.0000   1.0000   1.0000   1.0000
     1.0000   1.0000   1.0000   1.0000   1.0000   1.0000   1.0000   1.0000
     1.0000   1.0000   1.0000   1.0000   1.0000   1.0000   1.0000   1.0000
     1.0000   1.0000   1.0000   1.0000   1.0000   1.0000   1.0000   1.0000
     1.0000   1.0000   1.0000   1.0000

          k = 0.0000 1.2179 0.0000 (200781 PWs)   bands (ev):

   -98.5140 -98.5140 -98.4086 -98.4086 -98.3688 -98.3688 -98.1613 -98.1255
   -98.0961 -97.8571 -97.8570 -97.8214 -97.8214 -97.7893 -97.7893 -97.7662
   -97.6917 -97.6487 -19.2043 -19.1503 -19.1470 -19.0742 -19.0576 -18.9954
   -18.9925 -18.9747 -18.9639 -18.9603 -18.8481 -18.8199 -18.7233 -18.6728
   -18.6697 -18.6148 -18.5794 -18.5236 -18.5003 -18.4622 -18.4095 -18.3905
   -18.3778 -18.3544 -18.3400 -18.3305 -18.3267 -18.2552 -18.2530 -18.2361
   -17.3165 -16.9797 -16.4189 -16.2795 -16.1011 -15.9876 -15.9729 -15.4572
   -15.4188 -10.6607 -10.2399  -9.8623  -9.5744  -9.4517  -8.9084  -7.6033
    -7.4200  -7.2722  -7.0805  -6.6469  -6.5619  -6.3220  -6.3082  -6.1012
    -6.0205  -5.8721  -5.6951  -5.6191  -5.3688  -5.0893  -5.0085  -4.8277
    -4.6013  -4.4962  -4.3127  -3.9153

     occupation numbers 
     1.0000   1.0000   1.0000   1.0000   1.0000   1.0000   1.0000   1.0000
     1.0000   1.0000   1.0000   1.0000   1.0000   1.0000   1.0000   1.0000
     1.0000   1.0000   1.0000   1.0000   1.0000   1.0000   1.0000   1.0000
     1.0000   1.0000   1.0000   1.0000   1.0000   1.0000   1.0000   1.0000
     1.0000   1.0000   1.0000   1.0000   1.0000   1.0000   1.0000   1.0000
     1.0000   1.0000   1.0000   1.0000   1.0000   1.0000   1.0000   1.0000
     1.0000   1.0000   1.0000   1.0000   1.0000   1.0000   1.0000   1.0000
     1.0000   1.0000   1.0000   1.0000   1.0000   1.0000   1.0000   1.0000
     1.0000   1.0000   1.0000   1.0000   1.0000   1.0000   1.0000   1.0000
     1.0000   1.0000   1.0000   1.0000   1.0000   1.0000   1.0000   1.0000
     1.0000   1.0000   1.0000   1.0000

          k = 0.0000-1.6239 0.0000 (200682 PWs)   bands (ev):

   -98.5140 -98.5140 -98.4086 -98.4085 -98.3688 -98.3688 -98.1613 -98.1255
   -98.0961 -97.8571 -97.8570 -97.8214 -97.8213 -97.7893 -97.7893 -97.7662
   -97.6917 -97.6487 -19.2034 -19.1503 -19.1468 -19.0742 -19.0591 -18.9955
   -18.9922 -18.9747 -18.9636 -18.9605 -18.8463 -18.8225 -18.7234 -18.6729
   -18.6697 -18.6150 -18.5783 -18.5233 -18.4995 -18.4624 -18.4092 -18.3905
   -18.3784 -18.3547 -18.3404 -18.3305 -18.3259 -18.2559 -18.2531 -18.2363
   -17.2327 -16.9971 -16.4557 -16.2712 -16.1201 -15.9996 -15.9913 -15.4572
   -15.4456 -10.6650 -10.2716  -9.7195  -9.5930  -9.4306  -9.0393  -7.6123
    -7.4277  -7.1255  -7.0827  -6.5875  -6.5652  -6.3394  -6.3068  -6.0762
    -5.9762  -5.9108  -5.6656  -5.6284  -5.4155  -5.0757  -5.0211  -4.8034
    -4.6131  -4.4664  -4.3692  -3.8858

     occupation numbers 
     1.0000   1.0000   1.0000   1.0000   1.0000   1.0000   1.0000   1.0000
     1.0000   1.0000   1.0000   1.0000   1.0000   1.0000   1.0000   1.0000
     1.0000   1.0000   1.0000   1.0000   1.0000   1.0000   1.0000   1.0000
     1.0000   1.0000   1.0000   1.0000   1.0000   1.0000   1.0000   1.0000
     1.0000   1.0000   1.0000   1.0000   1.0000   1.0000   1.0000   1.0000
     1.0000   1.0000   1.0000   1.0000   1.0000   1.0000   1.0000   1.0000
     1.0000   1.0000   1.0000   1.0000   1.0000   1.0000   1.0000   1.0000
     1.0000   1.0000   1.0000   1.0000   1.0000   1.0000   1.0000   1.0000
     1.0000   1.0000   1.0000   1.0000   1.0000   1.0000   1.0000   1.0000
     1.0000   1.0000   1.0000   1.0000   1.0000   1.0000   1.0000   1.0000
     1.0000   1.0000   1.0000   1.0000

     highest occupied level (ev):    -3.8858

!    total energy              =   -2880.08654328 Ry
     Harris-Foulkes estimate   =   -2880.08654328 Ry
     estimated scf accuracy    <          8.6E-13 Ry

     The total energy is the sum of the following terms:

     one-electron contribution =   -8935.72470323 Ry
     hartree contribution      =    4461.03748081 Ry
     xc contribution           =    -552.35193798 Ry
     ewald contribution        =    2146.95261711 Ry

     convergence has been achieved in  17 iterations

     negative rho (up, down):  3.982E-04 0.000E+00

     Forces acting on atoms (cartesian axes, Ry/au):

     atom    1 type  1   force =     0.00000013   -0.00000770   -0.00000979
     atom    2 type  1   force =     0.00000154   -0.00000440   -0.00000394
     atom    3 type  1   force =    -0.00000145   -0.00000444   -0.00000396
     atom    4 type  1   force =     0.00000035    0.00000527   -0.00000066
     atom    5 type  1   force =    -0.00000040    0.00000528   -0.00000069
     atom    6 type  1   force =     0.00000005   -0.00000033    0.00001433
     atom    7 type  2   force =     0.00000973    0.00000048   -0.00000533
     atom    8 type  2   force =    -0.00000981    0.00000043   -0.00000530
     atom    9 type  2   force =     0.00000002    0.00001209   -0.00000482
     atom   10 type  2   force =    -0.00000004   -0.00001317    0.00000969
     atom   11 type  2   force =    -0.00000005    0.00001135    0.00000881
     atom   12 type  2   force =     0.00000492    0.00001224   -0.00000753
     atom   13 type  2   force =    -0.00000493    0.00001222   -0.00000758
     atom   14 type  2   force =     0.00000567   -0.00001465    0.00000837
     atom   15 type  2   force =    -0.00000573   -0.00001467    0.00000839
     The non-local contrib.  to forces
     atom    1 type  1   force =     0.00001740   -0.04940667   -0.23533867
     atom    2 type  1   force =     0.29909449   -0.17828544   -0.07326597
     atom    3 type  1   force =    -0.29908362   -0.17828635   -0.07330827
     atom    4 type  1   force =     0.13407928    0.17541824   -0.22828836
     atom    5 type  1   force =    -0.13404541    0.17541702   -0.22830745
     atom    6 type  1   force =    -0.00000363    0.09752579    0.05791711
     atom    7 type  2   force =     0.34841986   -0.08977593   -0.08463454
     atom    8 type  2   force =    -0.34840765   -0.08977736   -0.08468429
     atom    9 type  2   force =     0.00002066    0.11254239   -0.28327954
     atom   10 type  2   force =    -0.00002359   -0.09087117    0.32949945
     atom   11 type  2   force =     0.00000156    0.08741394   -0.03157330
     atom   12 type  2   force =     0.24038853    0.10362911   -0.17985576
     atom   13 type  2   force =    -0.24036318    0.10362903   -0.17988988
     atom   14 type  2   force =     0.23895622   -0.13865882    0.16632940
     atom   15 type  2   force =    -0.23897897   -0.13865826    0.16629686
     The ionic contribution  to forces
     atom    1 type  1   force =    -0.00496887  -11.98104427   69.51922954
     atom    2 type  1   force =   -62.03074834   -2.03874773  -38.80976628
     atom    3 type  1   force =    62.03620645   -2.03877728  -38.80110437
     atom    4 type  1   force =   -65.03728845    4.95577239   34.98530385
     atom    5 type  1   force =    65.03239363    4.95577706   34.99446167
     atom    6 type  1   force =     0.00469238    4.98807322  -65.64169269
     atom    7 type  2   force =   -34.98785435    1.46251807    2.92684122
     atom    8 type  2   force =    34.98743219    1.46254429    2.93184336
     atom    9 type  2   force =    -0.00214164    1.25703934   29.37838137
     atom   10 type  2   force =     0.00219699   -0.29797740  -30.47725782
     atom   11 type  2   force =     0.00021431   -4.06632101   -2.28794529
     atom   12 type  2   force =   -26.20253834   -3.64185911   25.83969251
     atom   13 type  2   force =    26.19889601   -3.64185510   25.84328266
     atom   14 type  2   force =   -25.35363061    4.31243253  -25.20234497
     atom   15 type  2   force =    25.35713865    4.31242503  -25.19892476
     The local contribution  to forces
     atom    1 type  1   force =     0.00495147   12.03047521  -69.28528727
     atom    2 type  1   force =    61.73409154    2.21539862   38.88288363
     atom    3 type  1   force =   -61.73956083    2.21542901   38.87426365
     atom    4 type  1   force =    64.90316773   -5.12945982  -34.75872111
     atom    5 type  1   force =   -64.89830655   -5.12946328  -34.76785977
     atom    6 type  1   force =    -0.00468880   -5.08570368   65.58324529
     atom    7 type  2   force =    34.67201327   -1.38283099   -2.84939003
     atom    8 type  2   force =   -34.67160216   -1.38285596   -2.85434701
     atom    9 type  2   force =     0.00212299   -1.35726985  -29.12245700
     atom   10 type  2   force =    -0.00217574    0.37870763   30.18024284
     atom   11 type  2   force =    -0.00021561    3.98588674    2.31378034
     atom   12 type  2   force =    25.98297352    3.54761370  -25.67512739
     atom   13 type  2   force =   -25.97935430    3.54760974  -25.67868638
     atom   14 type  2   force =    25.13572560   -4.18596666   25.04984682
     atom   15 type  2   force =   -25.13921274   -4.18595964   25.04645629
     The core correction contribution to forces
     atom    1 type  1   force =    -0.00000002   -0.00003254    0.00138747
     atom    2 type  1   force =    -0.00243697    0.00163049    0.00014526
     atom    3 type  1   force =     0.00243710    0.00163056    0.00014559
     atom    4 type  1   force =     0.00004153   -0.00172606    0.00170571
     atom    5 type  1   force =    -0.00004167   -0.00172606    0.00170567
     atom    6 type  1   force =    -0.00000005    0.00010530    0.00054471
     atom    7 type  2   force =    -0.03256895    0.01008949    0.00717793
     atom    8 type  2   force =     0.03256786    0.01008959    0.00718260
     atom    9 type  2   force =    -0.00000200   -0.01229960    0.02735025
     atom   10 type  2   force =     0.00000230    0.01012777   -0.03247490
     atom   11 type  2   force =    -0.00000034   -0.00696813    0.00574695
     atom   12 type  2   force =    -0.02081878   -0.00937151    0.01528306
     atom   13 type  2   force =     0.02081664   -0.00937150    0.01528599
     atom   14 type  2   force =    -0.02104561    0.01217846   -0.01382302
     atom   15 type  2   force =     0.02104743    0.01217835   -0.01382017
     The Hubbard contrib.    to forces
     atom    1 type  1   force =     0.00000000    0.00000000    0.00000000
     atom    2 type  1   force =     0.00000000    0.00000000    0.00000000
     atom    3 type  1   force =     0.00000000    0.00000000    0.00000000
     atom    4 type  1   force =     0.00000000    0.00000000    0.00000000
     atom    5 type  1   force =     0.00000000    0.00000000    0.00000000
     atom    6 type  1   force =     0.00000000    0.00000000    0.00000000
     atom    7 type  2   force =     0.00000000    0.00000000    0.00000000
     atom    8 type  2   force =     0.00000000    0.00000000    0.00000000
     atom    9 type  2   force =     0.00000000    0.00000000    0.00000000
     atom   10 type  2   force =     0.00000000    0.00000000    0.00000000
     atom   11 type  2   force =     0.00000000    0.00000000    0.00000000
     atom   12 type  2   force =     0.00000000    0.00000000    0.00000000
     atom   13 type  2   force =     0.00000000    0.00000000    0.00000000
     atom   14 type  2   force =     0.00000000    0.00000000    0.00000000
     atom   15 type  2   force =     0.00000000    0.00000000    0.00000000
     The SCF correction term to forces
     atom    1 type  1   force =     0.00000020    0.00000065   -0.00000110
     atom    2 type  1   force =     0.00000086   -0.00000025   -0.00000081
     atom    3 type  1   force =    -0.00000052   -0.00000029   -0.00000078
     atom    4 type  1   force =     0.00000031    0.00000061   -0.00000098
     atom    5 type  1   force =    -0.00000035    0.00000062   -0.00000102
     atom    6 type  1   force =     0.00000020   -0.00000089   -0.00000032
     atom    7 type  2   force =    -0.00000006   -0.00000008   -0.00000013
     atom    8 type  2   force =    -0.00000000   -0.00000005   -0.00000019
     atom    9 type  2   force =     0.00000006   -0.00000011   -0.00000013
     atom   10 type  2   force =     0.00000004    0.00000009   -0.00000009
     atom   11 type  2   force =     0.00000008   -0.00000012   -0.00000012
     atom   12 type  2   force =     0.00000003    0.00000013   -0.00000017
     atom   13 type  2   force =    -0.00000006    0.00000013   -0.00000021
     atom   14 type  2   force =     0.00000011   -0.00000008   -0.00000009
     atom   15 type  2   force =    -0.00000006   -0.00000007   -0.00000005

     Total force =     0.000050     Total SCF correction =     0.000003


     Computing stress (Cartesian axis) and pressure


     negative rho (up, down):  3.982E-04 0.000E+00
          total   stress  (Ry/bohr**3)                   (kbar)     P=   -0.12
  -0.00000122  -0.00000000  -0.00000000         -0.18     -0.00     -0.00
  -0.00000000  -0.00000003   0.00000003         -0.00     -0.00      0.00
  -0.00000000   0.00000003  -0.00000126         -0.00      0.00     -0.19

     kinetic stress (kbar)   1132.30     -0.00     -0.00
                               -0.00   1138.15     16.83
                               -0.00     16.83   1145.71

     local   stress (kbar)   1277.16     -0.12      0.26
                               -0.12 -58207.77   1770.44
                                0.26   1770.44  -5078.62

     nonloc. stress (kbar)    918.03      0.00     -0.00
                                0.00    922.02     -0.40
                               -0.00     -0.40    920.84

     hartree stress (kbar)   2330.21      0.05     -0.14
                                0.05  31582.06   -732.98
                               -0.14   -732.98   5566.96

     exc-cor stress (kbar)   1528.85      0.00      0.00
                                0.00   1529.13     -0.29
                                0.00     -0.29   1528.73

     corecor stress (kbar)  -2411.03      0.00      0.00
                                0.00  -2411.46     -0.45
                                0.00     -0.45  -2411.70

     ewald   stress (kbar)  -4775.70      0.07     -0.13
                                0.07  25447.88  -1053.16
                               -0.13  -1053.16  -1672.11

     hubbard stress (kbar)      0.00      0.00      0.00
                                0.00      0.00      0.00
                                0.00      0.00      0.00

     london  stress (kbar)      0.00      0.00      0.00
                                0.00      0.00      0.00
                                0.00      0.00      0.00

     DFT-D3  stress (kbar)      0.00      0.00      0.00
                                0.00      0.00      0.00
                                0.00      0.00      0.00

     XDM     stress (kbar)      0.00      0.00      0.00
                                0.00      0.00      0.00
                                0.00      0.00      0.00

     dft-nl  stress (kbar)      0.00      0.00      0.00
                                0.00      0.00      0.00
                                0.00      0.00      0.00

     TS-vdW  stress (kbar)      0.00      0.00      0.00
                                0.00      0.00      0.00
                                0.00      0.00      0.00



     BFGS Geometry Optimization

     number of scf cycles    =   1
     number of bfgs steps    =   0

     energy   new            =   -2880.0865432808 Ry

     new trust radius        =       0.0000178442 bohr
     new conv_thr            =            1.0E-11 Ry


ATOMIC_POSITIONS (crystal)
Ga       0.524834646   0.096955501   0.647938185
Ga       0.432808309   0.844529060   0.443084083
Ga       0.616889768   0.844529304   0.443097096
Ga       0.440853607   0.505539201   0.594186271
Ga       0.608823224   0.505539613   0.594198275
Ga       0.524851490   0.284715794   0.408044301
Se       0.366777666   0.719103653   0.528220677
Se       0.682908327   0.719104752   0.528243172
Se       0.524833729   0.710733384   0.659392668
Se       0.524853308   0.671676867   0.382759788
Se       0.524843046   0.285825465   0.530107474
Se       0.415039721   0.226988741   0.670780610
Se       0.634626303   0.226988946   0.670796198
Se       0.416315573   0.156909968   0.380028061
Se       0.633391282   0.156909753   0.380043147



     Writing output data file NR.save/
     NEW-OLD atomic charge density approx. for the potential

     negative rho (up, down):  3.982E-04 0.000E+00

     total cpu time spent up to now is      267.2 secs

     Self-consistent Calculation

     iteration #  1     ecut=    80.00 Ry     beta= 0.50
     Davidson diagonalization with overlap
     ethr =  1.00E-06,  avg # of iterations =  1.0

     Threshold (ethr) on eigenvalues was too large:
     Diagonalizing with lowered threshold

     Davidson diagonalization with overlap
     ethr =  5.61E-13,  avg # of iterations =  5.0

     negative rho (up, down):  3.982E-04 0.000E+00

     total cpu time spent up to now is      293.3 secs

     total energy              =   -2880.08654328 Ry
     Harris-Foulkes estimate   =   -2880.08654328 Ry
     estimated scf accuracy    <          1.5E-10 Ry

     iteration #  2     ecut=    80.00 Ry     beta= 0.50
     Davidson diagonalization with overlap
     ethr =  1.00E-13,  avg # of iterations =  3.4

     negative rho (up, down):  3.982E-04 0.000E+00

     total cpu time spent up to now is      306.0 secs

     total energy              =   -2880.08654328 Ry
     Harris-Foulkes estimate   =   -2880.08654328 Ry
     estimated scf accuracy    <          1.5E-10 Ry

     iteration #  3     ecut=    80.00 Ry     beta= 0.50
     Davidson diagonalization with overlap
     ethr =  1.00E-13,  avg # of iterations =  2.2

     negative rho (up, down):  3.982E-04 0.000E+00

     total cpu time spent up to now is      317.4 secs

     End of self-consistent calculation

          k = 0.0000 0.0000 0.0000 (200813 PWs)   bands (ev):

   -98.5140 -98.5140 -98.4086 -98.4086 -98.3688 -98.3688 -98.1613 -98.1255
   -98.0961 -97.8571 -97.8570 -97.8214 -97.8214 -97.7893 -97.7893 -97.7662
   -97.6917 -97.6487 -19.2098 -19.1502 -19.1484 -19.0741 -19.0489 -18.9945
   -18.9944 -18.9745 -18.9660 -18.9596 -18.8546 -18.8077 -18.7223 -18.6722
   -18.6694 -18.6120 -18.5875 -18.5254 -18.5056 -18.4614 -18.4110 -18.3913
   -18.3719 -18.3527 -18.3378 -18.3314 -18.3303 -18.2520 -18.2509 -18.2349
   -17.5764 -17.0811 -16.3227 -16.1465 -16.0827 -15.9714 -15.8339 -15.4564
   -15.2225 -10.6102 -10.3959 -10.0364  -9.6648  -9.4627  -8.3222  -8.0543
    -7.5118  -7.3496  -7.1123  -6.6007  -6.5232  -6.4080  -6.3242  -6.2380
    -6.1660  -6.0725  -5.9027  -5.6940  -5.0990  -4.9545  -4.9154  -4.8470
    -4.7568  -4.6123  -4.0894  -4.0318

     occupation numbers 
     1.0000   1.0000   1.0000   1.0000   1.0000   1.0000   1.0000   1.0000
     1.0000   1.0000   1.0000   1.0000   1.0000   1.0000   1.0000   1.0000
     1.0000   1.0000   1.0000   1.0000   1.0000   1.0000   1.0000   1.0000
     1.0000   1.0000   1.0000   1.0000   1.0000   1.0000   1.0000   1.0000
     1.0000   1.0000   1.0000   1.0000   1.0000   1.0000   1.0000   1.0000
     1.0000   1.0000   1.0000   1.0000   1.0000   1.0000   1.0000   1.0000
     1.0000   1.0000   1.0000   1.0000   1.0000   1.0000   1.0000   1.0000
     1.0000   1.0000   1.0000   1.0000   1.0000   1.0000   1.0000   1.0000
     1.0000   1.0000   1.0000   1.0000   1.0000   1.0000   1.0000   1.0000
     1.0000   1.0000   1.0000   1.0000   1.0000   1.0000   1.0000   1.0000
     1.0000   1.0000   1.0000   1.0000

          k = 0.0000 0.4060 0.0000 (200873 PWs)   bands (ev):

   -98.5140 -98.5140 -98.4086 -98.4086 -98.3688 -98.3688 -98.1613 -98.1255
   -98.0962 -97.8571 -97.8570 -97.8214 -97.8214 -97.7893 -97.7893 -97.7662
   -97.6917 -97.6487 -19.2089 -19.1502 -19.1482 -19.0741 -19.0504 -18.9947
   -18.9941 -18.9746 -18.9656 -18.9597 -18.8537 -18.8096 -18.7224 -18.6723
   -18.6694 -18.6127 -18.5858 -18.5251 -18.5045 -18.4616 -18.4108 -18.3911
   -18.3732 -18.3530 -18.3381 -18.3306 -18.3304 -18.2521 -18.2517 -18.2351
   -17.5427 -17.0596 -16.3158 -16.1902 -16.0847 -15.9736 -15.8531 -15.4566
   -15.2601 -10.6174 -10.3317 -10.0739  -9.6012  -9.4822  -8.4655  -7.9454
    -7.4391  -7.3574  -7.1133  -6.6256  -6.6000  -6.4159  -6.2981  -6.2106
    -6.1457  -6.0184  -5.7768  -5.6963  -5.2076  -4.9687  -4.9185  -4.8871
    -4.6699  -4.6016  -4.0823  -4.0615

     occupation numbers 
     1.0000   1.0000   1.0000   1.0000   1.0000   1.0000   1.0000   1.0000
     1.0000   1.0000   1.0000   1.0000   1.0000   1.0000   1.0000   1.0000
     1.0000   1.0000   1.0000   1.0000   1.0000   1.0000   1.0000   1.0000
     1.0000   1.0000   1.0000   1.0000   1.0000   1.0000   1.0000   1.0000
     1.0000   1.0000   1.0000   1.0000   1.0000   1.0000   1.0000   1.0000
     1.0000   1.0000   1.0000   1.0000   1.0000   1.0000   1.0000   1.0000
     1.0000   1.0000   1.0000   1.0000   1.0000   1.0000   1.0000   1.0000
     1.0000   1.0000   1.0000   1.0000   1.0000   1.0000   1.0000   1.0000
     1.0000   1.0000   1.0000   1.0000   1.0000   1.0000   1.0000   1.0000
     1.0000   1.0000   1.0000   1.0000   1.0000   1.0000   1.0000   1.0000
     1.0000   1.0000   1.0000   1.0000

          k = 0.0000 0.8120 0.0000 (200909 PWs)   bands (ev):

   -98.5140 -98.5140 -98.4086 -98.4086 -98.3688 -98.3688 -98.1613 -98.1255
   -98.0962 -97.8571 -97.8570 -97.8214 -97.8214 -97.7893 -97.7893 -97.7662
   -97.6917 -97.6487 -19.2067 -19.1503 -19.1477 -19.0741 -19.0539 -18.9950
   -18.9933 -18.9746 -18.9647 -18.9600 -18.8513 -18.8145 -18.7229 -18.6725
   -18.6695 -18.6140 -18.5823 -18.5243 -18.5022 -18.4619 -18.4101 -18.3908
   -18.3759 -18.3537 -18.3390 -18.3304 -18.3286 -18.2534 -18.2526 -18.2356
   -17.4478 -17.0093 -16.3054 -16.2984 -16.0873 -15.9798 -15.9067 -15.4570
   -15.3449 -10.6433 -10.1597 -10.1277  -9.5288  -9.4992  -8.6881  -7.7549
    -7.3919  -7.3500  -7.0919  -6.6543  -6.5732  -6.5169  -6.3288  -6.0858
    -6.0302  -5.8382  -5.7757  -5.6398  -5.3432  -5.0293  -4.9756  -4.8699
    -4.6020  -4.5567  -4.1925  -3.9889

     occupation numbers 
     1.0000   1.0000   1.0000   1.0000   1.0000   1.0000   1.0000   1.0000
     1.0000   1.0000   1.0000   1.0000   1.0000   1.0000   1.0000   1.0000
     1.0000   1.0000   1.0000   1.0000   1.0000   1.0000   1.0000   1.0000
     1.0000   1.0000   1.0000   1.0000   1.0000   1.0000   1.0000   1.0000
     1.0000   1.0000   1.0000   1.0000   1.0000   1.0000   1.0000   1.0000
     1.0000   1.0000   1.0000   1.0000   1.0000   1.0000   1.0000   1.0000
     1.0000   1.0000   1.0000   1.0000   1.0000   1.0000   1.0000   1.0000
     1.0000   1.0000   1.0000   1.0000   1.0000   1.0000   1.0000   1.0000
     1.0000   1.0000   1.0000   1.0000   1.0000   1.0000   1.0000   1.0000
     1.0000   1.0000   1.0000   1.0000   1.0000   1.0000   1.0000   1.0000
     1.0000   1.0000   1.0000   1.0000

          k = 0.0000 1.2179 0.0000 (200781 PWs)   bands (ev):

   -98.5140 -98.5140 -98.4086 -98.4086 -98.3688 -98.3688 -98.1613 -98.1255
   -98.0962 -97.8571 -97.8570 -97.8214 -97.8214 -97.7893 -97.7893 -97.7662
   -97.6917 -97.6487 -19.2044 -19.1503 -19.1471 -19.0742 -19.0576 -18.9954
   -18.9925 -18.9747 -18.9639 -18.9603 -18.8481 -18.8199 -18.7233 -18.6728
   -18.6697 -18.6148 -18.5794 -18.5236 -18.5003 -18.4622 -18.4095 -18.3905
   -18.3778 -18.3544 -18.3400 -18.3305 -18.3267 -18.2552 -18.2530 -18.2361
   -17.3165 -16.9797 -16.4189 -16.2795 -16.1012 -15.9876 -15.9729 -15.4572
   -15.4188 -10.6607 -10.2399  -9.8623  -9.5744  -9.4517  -8.9084  -7.6033
    -7.4200  -7.2722  -7.0805  -6.6469  -6.5619  -6.3220  -6.3082  -6.1012
    -6.0205  -5.8721  -5.6951  -5.6191  -5.3688  -5.0893  -5.0085  -4.8277
    -4.6013  -4.4963  -4.3127  -3.9153

     occupation numbers 
     1.0000   1.0000   1.0000   1.0000   1.0000   1.0000   1.0000   1.0000
     1.0000   1.0000   1.0000   1.0000   1.0000   1.0000   1.0000   1.0000
     1.0000   1.0000   1.0000   1.0000   1.0000   1.0000   1.0000   1.0000
     1.0000   1.0000   1.0000   1.0000   1.0000   1.0000   1.0000   1.0000
     1.0000   1.0000   1.0000   1.0000   1.0000   1.0000   1.0000   1.0000
     1.0000   1.0000   1.0000   1.0000   1.0000   1.0000   1.0000   1.0000
     1.0000   1.0000   1.0000   1.0000   1.0000   1.0000   1.0000   1.0000
     1.0000   1.0000   1.0000   1.0000   1.0000   1.0000   1.0000   1.0000
     1.0000   1.0000   1.0000   1.0000   1.0000   1.0000   1.0000   1.0000
     1.0000   1.0000   1.0000   1.0000   1.0000   1.0000   1.0000   1.0000
     1.0000   1.0000   1.0000   1.0000

          k = 0.0000-1.6239 0.0000 (200682 PWs)   bands (ev):

   -98.5140 -98.5140 -98.4086 -98.4086 -98.3688 -98.3688 -98.1613 -98.1255
   -98.0962 -97.8571 -97.8570 -97.8214 -97.8213 -97.7893 -97.7893 -97.7662
   -97.6917 -97.6487 -19.2034 -19.1503 -19.1468 -19.0742 -19.0591 -18.9955
   -18.9922 -18.9747 -18.9636 -18.9605 -18.8464 -18.8225 -18.7234 -18.6729
   -18.6697 -18.6150 -18.5783 -18.5233 -18.4995 -18.4624 -18.4092 -18.3905
   -18.3784 -18.3547 -18.3404 -18.3305 -18.3259 -18.2559 -18.2531 -18.2363
   -17.2327 -16.9971 -16.4557 -16.2712 -16.1201 -15.9996 -15.9913 -15.4572
   -15.4456 -10.6650 -10.2716  -9.7195  -9.5930  -9.4306  -9.0393  -7.6123
    -7.4277  -7.1256  -7.0827  -6.5876  -6.5652  -6.3395  -6.3068  -6.0762
    -5.9762  -5.9108  -5.6656  -5.6284  -5.4155  -5.0757  -5.0211  -4.8034
    -4.6131  -4.4664  -4.3692  -3.8858

     occupation numbers 
     1.0000   1.0000   1.0000   1.0000   1.0000   1.0000   1.0000   1.0000
     1.0000   1.0000   1.0000   1.0000   1.0000   1.0000   1.0000   1.0000
     1.0000   1.0000   1.0000   1.0000   1.0000   1.0000   1.0000   1.0000
     1.0000   1.0000   1.0000   1.0000   1.0000   1.0000   1.0000   1.0000
     1.0000   1.0000   1.0000   1.0000   1.0000   1.0000   1.0000   1.0000
     1.0000   1.0000   1.0000   1.0000   1.0000   1.0000   1.0000   1.0000
     1.0000   1.0000   1.0000   1.0000   1.0000   1.0000   1.0000   1.0000
     1.0000   1.0000   1.0000   1.0000   1.0000   1.0000   1.0000   1.0000
     1.0000   1.0000   1.0000   1.0000   1.0000   1.0000   1.0000   1.0000
     1.0000   1.0000   1.0000   1.0000   1.0000   1.0000   1.0000   1.0000
     1.0000   1.0000   1.0000   1.0000

     highest occupied level (ev):    -3.8858

!    total energy              =   -2880.08654328 Ry
     Harris-Foulkes estimate   =   -2880.08654328 Ry
     estimated scf accuracy    <          6.2E-12 Ry

     The total energy is the sum of the following terms:

     one-electron contribution =   -8935.73314657 Ry
     hartree contribution      =    4461.04174542 Ry
     xc contribution           =    -552.35196749 Ry
     ewald contribution        =    2146.95682536 Ry

     convergence has been achieved in   3 iterations

     negative rho (up, down):  3.982E-04 0.000E+00

     Forces acting on atoms (cartesian axes, Ry/au):

     atom    1 type  1   force =    -0.00000000   -0.00000459   -0.00000488
     atom    2 type  1   force =     0.00000017   -0.00000652   -0.00000347
     atom    3 type  1   force =    -0.00000022   -0.00000649   -0.00000349
     atom    4 type  1   force =    -0.00000091    0.00000663    0.00000053
     atom    5 type  1   force =     0.00000087    0.00000662    0.00000053
     atom    6 type  1   force =    -0.00000004   -0.00000171    0.00001006
     atom    7 type  2   force =     0.00000808    0.00000045   -0.00000480
     atom    8 type  2   force =    -0.00000808    0.00000040   -0.00000483
     atom    9 type  2   force =     0.00000002    0.00000972   -0.00000463
     atom   10 type  2   force =     0.00000002   -0.00001254    0.00000809
     atom   11 type  2   force =    -0.00000003    0.00001036    0.00000696
     atom   12 type  2   force =     0.00000418    0.00001073   -0.00000660
     atom   13 type  2   force =    -0.00000412    0.00001070   -0.00000664
     atom   14 type  2   force =     0.00000538   -0.00001188    0.00000660
     atom   15 type  2   force =    -0.00000534   -0.00001189    0.00000658
     The non-local contrib.  to forces
     atom    1 type  1   force =     0.00001726   -0.04940160   -0.23533154
     atom    2 type  1   force =     0.29909259   -0.17829034   -0.07326835
     atom    3 type  1   force =    -0.29908160   -0.17829116   -0.07331058
     atom    4 type  1   force =     0.13408098    0.17542489   -0.22828661
     atom    5 type  1   force =    -0.13404690    0.17542373   -0.22830560
     atom    6 type  1   force =    -0.00000375    0.09752236    0.05790829
     atom    7 type  2   force =     0.34841895   -0.08977673   -0.08463408
     atom    8 type  2   force =    -0.34840674   -0.08977817   -0.08468381
     atom    9 type  2   force =     0.00002068    0.11254272   -0.28327879
     atom   10 type  2   force =    -0.00002357   -0.09087099    0.32949895
     atom   11 type  2   force =     0.00000159    0.08741319   -0.03157535
     atom   12 type  2   force =     0.24038797    0.10362849   -0.17985562
     atom   13 type  2   force =    -0.24036259    0.10362841   -0.17988974
     atom   14 type  2   force =     0.23895563   -0.13865780    0.16632868
     atom   15 type  2   force =    -0.23897836   -0.13865723    0.16629612
     The ionic contribution  to forces
     atom    1 type  1   force =    -0.00496847  -11.98091481   69.51920706
     atom    2 type  1   force =   -62.03078792   -2.03876522  -38.80991556
     atom    3 type  1   force =    62.03624657   -2.03879489  -38.80125462
     atom    4 type  1   force =   -65.03735006    4.95576171   34.98543390
     atom    5 type  1   force =    65.03245391    4.95576660   34.99459127
     atom    6 type  1   force =     0.00469235    4.98800093  -65.64163048
     atom    7 type  2   force =   -34.98790582    1.46252375    2.92683959
     atom    8 type  2   force =    34.98748392    1.46254996    2.93184201
     atom    9 type  2   force =    -0.00214201    1.25693613   29.37840914
     atom   10 type  2   force =     0.00219678   -0.29796026  -30.47728389
     atom   11 type  2   force =     0.00021356   -4.06633667   -2.28793123
     atom   12 type  2   force =   -26.20253666   -3.64187807   25.83975031
     atom   13 type  2   force =    26.19889559   -3.64187344   25.84334060
     atom   14 type  2   force =   -25.35363207    4.31249598  -25.20240895
     atom   15 type  2   force =    25.35714034    4.31248829  -25.19898914
     The local contribution  to forces
     atom    1 type  1   force =     0.00495120   12.03034532  -69.28527420
     atom    2 type  1   force =    61.73413532    2.21542009   38.88303679
     atom    3 type  1   force =   -61.73960511    2.21545050   38.87441774
     atom    4 type  1   force =    64.90322913   -5.12945633  -34.75885462
     atom    5 type  1   force =   -64.89836690   -5.12946006  -34.76799296
     atom    6 type  1   force =    -0.00468865   -5.08562971   65.58319238
     atom    7 type  2   force =    34.67206481   -1.38283609   -2.84938864
     atom    8 type  2   force =   -34.67165401   -1.38286102   -2.85434602
     atom    9 type  2   force =     0.00212335   -1.35716950  -29.12248637
     atom   10 type  2   force =    -0.00217549    0.37869070   30.18026867
     atom   11 type  2   force =    -0.00021484    3.98590203    2.31376541
     atom   12 type  2   force =    25.98297207    3.54763192  -25.67518520
     atom   13 type  2   force =   -25.97935415    3.54762734  -25.67874435
     atom   14 type  2   force =    25.13572851   -4.18602804   25.04991034
     atom   15 type  2   force =   -25.13921583   -4.18602082   25.04652020
     The core correction contribution to forces
     atom    1 type  1   force =    -0.00000002   -0.00003268    0.00138741
     atom    2 type  1   force =    -0.00243698    0.00163056    0.00014525
     atom    3 type  1   force =     0.00243712    0.00163063    0.00014558
     atom    4 type  1   force =     0.00004151   -0.00172612    0.00170570
     atom    5 type  1   force =    -0.00004165   -0.00172612    0.00170565
     atom    6 type  1   force =    -0.00000004    0.00010536    0.00054480
     atom    7 type  2   force =    -0.03256878    0.01008958    0.00717785
     atom    8 type  2   force =     0.03256768    0.01008969    0.00718251
     atom    9 type  2   force =    -0.00000200   -0.01229949    0.02735014
     atom   10 type  2   force =     0.00000230    0.01012774   -0.03247485
     atom   11 type  2   force =    -0.00000034   -0.00696805    0.00574718
     atom   12 type  2   force =    -0.02081873   -0.00937142    0.01528296
     atom   13 type  2   force =     0.02081659   -0.00937141    0.01528590
     atom   14 type  2   force =    -0.02104553    0.01217824   -0.01382284
     atom   15 type  2   force =     0.02104735    0.01217813   -0.01381999
     The Hubbard contrib.    to forces
     atom    1 type  1   force =     0.00000000    0.00000000    0.00000000
     atom    2 type  1   force =     0.00000000    0.00000000    0.00000000
     atom    3 type  1   force =     0.00000000    0.00000000    0.00000000
     atom    4 type  1   force =     0.00000000    0.00000000    0.00000000
     atom    5 type  1   force =     0.00000000    0.00000000    0.00000000
     atom    6 type  1   force =     0.00000000    0.00000000    0.00000000
     atom    7 type  2   force =     0.00000000    0.00000000    0.00000000
     atom    8 type  2   force =     0.00000000    0.00000000    0.00000000
     atom    9 type  2   force =     0.00000000    0.00000000    0.00000000
     atom   10 type  2   force =     0.00000000    0.00000000    0.00000000
     atom   11 type  2   force =     0.00000000    0.00000000    0.00000000
     atom   12 type  2   force =     0.00000000    0.00000000    0.00000000
     atom   13 type  2   force =     0.00000000    0.00000000    0.00000000
     atom   14 type  2   force =     0.00000000    0.00000000    0.00000000
     atom   15 type  2   force =     0.00000000    0.00000000    0.00000000
     The SCF correction term to forces
     atom    1 type  1   force =     0.00000004   -0.00000070    0.00000632
     atom    2 type  1   force =    -0.00000283   -0.00000150   -0.00000166
     atom    3 type  1   force =     0.00000282   -0.00000145   -0.00000167
     atom    4 type  1   force =    -0.00000246    0.00000260    0.00000210
     atom    5 type  1   force =     0.00000241    0.00000258    0.00000211
     atom    6 type  1   force =     0.00000006   -0.00000053   -0.00000499
     atom    7 type  2   force =    -0.00000108    0.00000005    0.00000042
     atom    8 type  2   force =     0.00000107    0.00000006    0.00000042
     atom    9 type  2   force =     0.00000001   -0.00000002    0.00000120
     atom   10 type  2   force =     0.00000001    0.00000037   -0.00000086
     atom   11 type  2   force =     0.00000001   -0.00000002    0.00000090
     atom   12 type  2   force =    -0.00000046   -0.00000007    0.00000089
     atom   13 type  2   force =     0.00000045   -0.00000007    0.00000088
     atom   14 type  2   force =    -0.00000116   -0.00000013   -0.00000068
     atom   15 type  2   force =     0.00000117   -0.00000013   -0.00000067

     Total force =     0.000042     Total SCF correction =     0.000012
     SCF correction compared to forces is large: reduce conv_thr to get better values


     Computing stress (Cartesian axis) and pressure


     negative rho (up, down):  3.982E-04 0.000E+00
          total   stress  (Ry/bohr**3)                   (kbar)     P=   -0.12
  -0.00000121  -0.00000000  -0.00000000         -0.18     -0.00     -0.00
  -0.00000000  -0.00000002   0.00000002         -0.00     -0.00      0.00
  -0.00000000   0.00000002  -0.00000125         -0.00      0.00     -0.18

     kinetic stress (kbar)   1132.30     -0.00     -0.00
                               -0.00   1138.15     16.83
                               -0.00     16.83   1145.71

     local   stress (kbar)   1277.16     -0.12      0.26
                               -0.12 -58207.86   1770.44
                                0.26   1770.44  -5078.61

     nonloc. stress (kbar)    918.03      0.00     -0.00
                                0.00    922.02     -0.40
                               -0.00     -0.40    920.84

     hartree stress (kbar)   2330.21      0.05     -0.14
                                0.05  31582.10   -732.98
                               -0.14   -732.98   5566.95

     exc-cor stress (kbar)   1528.85      0.00      0.00
                                0.00   1529.13     -0.29
                                0.00     -0.29   1528.73

     corecor stress (kbar)  -2411.03      0.00      0.00
                                0.00  -2411.46     -0.45
                                0.00     -0.45  -2411.70

     ewald   stress (kbar)  -4775.70      0.07     -0.13
                                0.07  25447.92  -1053.16
                               -0.13  -1053.16  -1672.11

     hubbard stress (kbar)      0.00      0.00      0.00
                                0.00      0.00      0.00
                                0.00      0.00      0.00

     london  stress (kbar)      0.00      0.00      0.00
                                0.00      0.00      0.00
                                0.00      0.00      0.00

     DFT-D3  stress (kbar)      0.00      0.00      0.00
                                0.00      0.00      0.00
                                0.00      0.00      0.00

     XDM     stress (kbar)      0.00      0.00      0.00
                                0.00      0.00      0.00
                                0.00      0.00      0.00

     dft-nl  stress (kbar)      0.00      0.00      0.00
                                0.00      0.00      0.00
                                0.00      0.00      0.00

     TS-vdW  stress (kbar)      0.00      0.00      0.00
                                0.00      0.00      0.00
                                0.00      0.00      0.00



     number of scf cycles    =   2
     number of bfgs steps    =   1

     energy   old            =   -2880.0865432808 Ry
     energy   new            =   -2880.0865432829 Ry

     CASE: energy  _new < energy  _old


     WARNING: bfgs curvature condition failed, Theta= 0.955
     small trust_radius: resetting bfgs history

     new trust radius        =       0.0000149245 bohr
     new conv_thr            =            1.0E-13 Ry


ATOMIC_POSITIONS (crystal)
Ga       0.524834646   0.096955107   0.647938056
Ga       0.432808313   0.844528499   0.443083991
Ga       0.616889762   0.844528747   0.443097004
Ga       0.440853583   0.505539771   0.594186285
Ga       0.608823248   0.505540182   0.594198289
Ga       0.524851489   0.284715646   0.408044567
Se       0.366777880   0.719103692   0.528220550
Se       0.682908114   0.719104786   0.528243044
Se       0.524833729   0.710734220   0.659392545
Se       0.524853309   0.671675789   0.382760001
Se       0.524843045   0.285826355   0.530107658
Se       0.415039832   0.226989663   0.670780435
Se       0.634626194   0.226989866   0.670796023
Se       0.416315715   0.156908947   0.380028236
Se       0.633391141   0.156908731   0.380043321



     Writing output data file NR.save/
     NEW-OLD atomic charge density approx. for the potential

     negative rho (up, down):  3.982E-04 0.000E+00

     total cpu time spent up to now is      345.7 secs

     Self-consistent Calculation

     iteration #  1     ecut=    80.00 Ry     beta= 0.50
     Davidson diagonalization with overlap
     ethr =  1.00E-06,  avg # of iterations =  1.0

     Threshold (ethr) on eigenvalues was too large:
     Diagonalizing with lowered threshold

     Davidson diagonalization with overlap
     ethr =  4.37E-13,  avg # of iterations =  5.0

     negative rho (up, down):  3.982E-04 0.000E+00

     total cpu time spent up to now is      372.2 secs

     total energy              =   -2880.08654328 Ry
     Harris-Foulkes estimate   =   -2880.08654328 Ry
     estimated scf accuracy    <          6.6E-11 Ry

     iteration #  2     ecut=    80.00 Ry     beta= 0.50
     Davidson diagonalization with overlap
     ethr =  1.00E-13,  avg # of iterations =  3.4

     negative rho (up, down):  3.982E-04 0.000E+00

     total cpu time spent up to now is      384.5 secs

     total energy              =   -2880.08654328 Ry
     Harris-Foulkes estimate   =   -2880.08654328 Ry
     estimated scf accuracy    <          3.1E-11 Ry

     iteration #  3     ecut=    80.00 Ry     beta= 0.50
     Davidson diagonalization with overlap
     ethr =  1.00E-13,  avg # of iterations =  2.0

     negative rho (up, down):  3.982E-04 0.000E+00

     total cpu time spent up to now is      395.7 secs

     total energy              =   -2880.08654328 Ry
     Harris-Foulkes estimate   =   -2880.08654328 Ry
     estimated scf accuracy    <          5.2E-12 Ry

     iteration #  4     ecut=    80.00 Ry     beta= 0.50
     Davidson diagonalization with overlap
     ethr =  1.00E-13,  avg # of iterations =  1.0

     negative rho (up, down):  3.982E-04 0.000E+00

     total cpu time spent up to now is      406.2 secs

     total energy              =   -2880.08654328 Ry
     Harris-Foulkes estimate   =   -2880.08654328 Ry
     estimated scf accuracy    <          5.6E-13 Ry

     iteration #  5     ecut=    80.00 Ry     beta= 0.50
     Davidson diagonalization with overlap
     ethr =  1.00E-13,  avg # of iterations =  1.0

     negative rho (up, down):  3.982E-04 0.000E+00

     total cpu time spent up to now is      416.6 secs

     End of self-consistent calculation

          k = 0.0000 0.0000 0.0000 (200813 PWs)   bands (ev):

   -98.5140 -98.5140 -98.4086 -98.4086 -98.3688 -98.3688 -98.1613 -98.1255
   -98.0961 -97.8571 -97.8570 -97.8214 -97.8214 -97.7893 -97.7893 -97.7662
   -97.6917 -97.6487 -19.2098 -19.1502 -19.1484 -19.0741 -19.0489 -18.9945
   -18.9944 -18.9745 -18.9660 -18.9596 -18.8546 -18.8077 -18.7223 -18.6722
   -18.6694 -18.6120 -18.5875 -18.5254 -18.5056 -18.4614 -18.4110 -18.3912
   -18.3719 -18.3527 -18.3378 -18.3314 -18.3303 -18.2519 -18.2509 -18.2349
   -17.5764 -17.0811 -16.3227 -16.1465 -16.0827 -15.9714 -15.8339 -15.4564
   -15.2225 -10.6102 -10.3959 -10.0364  -9.6648  -9.4627  -8.3222  -8.0543
    -7.5119  -7.3496  -7.1123  -6.6007  -6.5232  -6.4080  -6.3242  -6.2380
    -6.1660  -6.0725  -5.9027  -5.6940  -5.0990  -4.9545  -4.9154  -4.8470
    -4.7568  -4.6123  -4.0894  -4.0318

     occupation numbers 
     1.0000   1.0000   1.0000   1.0000   1.0000   1.0000   1.0000   1.0000
     1.0000   1.0000   1.0000   1.0000   1.0000   1.0000   1.0000   1.0000
     1.0000   1.0000   1.0000   1.0000   1.0000   1.0000   1.0000   1.0000
     1.0000   1.0000   1.0000   1.0000   1.0000   1.0000   1.0000   1.0000
     1.0000   1.0000   1.0000   1.0000   1.0000   1.0000   1.0000   1.0000
     1.0000   1.0000   1.0000   1.0000   1.0000   1.0000   1.0000   1.0000
     1.0000   1.0000   1.0000   1.0000   1.0000   1.0000   1.0000   1.0000
     1.0000   1.0000   1.0000   1.0000   1.0000   1.0000   1.0000   1.0000
     1.0000   1.0000   1.0000   1.0000   1.0000   1.0000   1.0000   1.0000
     1.0000   1.0000   1.0000   1.0000   1.0000   1.0000   1.0000   1.0000
     1.0000   1.0000   1.0000   1.0000

          k = 0.0000 0.4060 0.0000 (200873 PWs)   bands (ev):

   -98.5140 -98.5140 -98.4086 -98.4086 -98.3688 -98.3688 -98.1613 -98.1255
   -98.0962 -97.8571 -97.8570 -97.8214 -97.8214 -97.7893 -97.7893 -97.7662
   -97.6917 -97.6487 -19.2089 -19.1502 -19.1482 -19.0741 -19.0504 -18.9947
   -18.9941 -18.9746 -18.9656 -18.9597 -18.8537 -18.8096 -18.7224 -18.6723
   -18.6694 -18.6127 -18.5858 -18.5251 -18.5045 -18.4616 -18.4108 -18.3911
   -18.3732 -18.3530 -18.3381 -18.3306 -18.3304 -18.2521 -18.2516 -18.2351
   -17.5427 -17.0596 -16.3159 -16.1902 -16.0847 -15.9736 -15.8531 -15.4566
   -15.2601 -10.6174 -10.3317 -10.0739  -9.6012  -9.4822  -8.4655  -7.9454
    -7.4391  -7.3574  -7.1133  -6.6256  -6.6000  -6.4159  -6.2981  -6.2106
    -6.1457  -6.0184  -5.7768  -5.6963  -5.2076  -4.9687  -4.9185  -4.8871
    -4.6699  -4.6016  -4.0823  -4.0615

     occupation numbers 
     1.0000   1.0000   1.0000   1.0000   1.0000   1.0000   1.0000   1.0000
     1.0000   1.0000   1.0000   1.0000   1.0000   1.0000   1.0000   1.0000
     1.0000   1.0000   1.0000   1.0000   1.0000   1.0000   1.0000   1.0000
     1.0000   1.0000   1.0000   1.0000   1.0000   1.0000   1.0000   1.0000
     1.0000   1.0000   1.0000   1.0000   1.0000   1.0000   1.0000   1.0000
     1.0000   1.0000   1.0000   1.0000   1.0000   1.0000   1.0000   1.0000
     1.0000   1.0000   1.0000   1.0000   1.0000   1.0000   1.0000   1.0000
     1.0000   1.0000   1.0000   1.0000   1.0000   1.0000   1.0000   1.0000
     1.0000   1.0000   1.0000   1.0000   1.0000   1.0000   1.0000   1.0000
     1.0000   1.0000   1.0000   1.0000   1.0000   1.0000   1.0000   1.0000
     1.0000   1.0000   1.0000   1.0000

          k = 0.0000 0.8120 0.0000 (200909 PWs)   bands (ev):

   -98.5140 -98.5140 -98.4086 -98.4086 -98.3688 -98.3688 -98.1613 -98.1255
   -98.0962 -97.8571 -97.8570 -97.8214 -97.8214 -97.7893 -97.7893 -97.7662
   -97.6917 -97.6487 -19.2067 -19.1503 -19.1477 -19.0741 -19.0539 -18.9950
   -18.9933 -18.9746 -18.9647 -18.9600 -18.8513 -18.8145 -18.7229 -18.6725
   -18.6695 -18.6140 -18.5823 -18.5243 -18.5022 -18.4619 -18.4101 -18.3908
   -18.3759 -18.3537 -18.3390 -18.3304 -18.3286 -18.2534 -18.2526 -18.2356
   -17.4479 -17.0093 -16.3054 -16.2984 -16.0873 -15.9798 -15.9067 -15.4570
   -15.3449 -10.6433 -10.1598 -10.1277  -9.5288  -9.4992  -8.6881  -7.7550
    -7.3919  -7.3500  -7.0919  -6.6543  -6.5732  -6.5169  -6.3288  -6.0858
    -6.0302  -5.8382  -5.7757  -5.6398  -5.3432  -5.0293  -4.9756  -4.8699
    -4.6020  -4.5567  -4.1925  -3.9889

     occupation numbers 
     1.0000   1.0000   1.0000   1.0000   1.0000   1.0000   1.0000   1.0000
     1.0000   1.0000   1.0000   1.0000   1.0000   1.0000   1.0000   1.0000
     1.0000   1.0000   1.0000   1.0000   1.0000   1.0000   1.0000   1.0000
     1.0000   1.0000   1.0000   1.0000   1.0000   1.0000   1.0000   1.0000
     1.0000   1.0000   1.0000   1.0000   1.0000   1.0000   1.0000   1.0000
     1.0000   1.0000   1.0000   1.0000   1.0000   1.0000   1.0000   1.0000
     1.0000   1.0000   1.0000   1.0000   1.0000   1.0000   1.0000   1.0000
     1.0000   1.0000   1.0000   1.0000   1.0000   1.0000   1.0000   1.0000
     1.0000   1.0000   1.0000   1.0000   1.0000   1.0000   1.0000   1.0000
     1.0000   1.0000   1.0000   1.0000   1.0000   1.0000   1.0000   1.0000
     1.0000   1.0000   1.0000   1.0000

          k = 0.0000 1.2179 0.0000 (200781 PWs)   bands (ev):

   -98.5140 -98.5140 -98.4086 -98.4086 -98.3688 -98.3688 -98.1613 -98.1255
   -98.0962 -97.8571 -97.8570 -97.8214 -97.8213 -97.7893 -97.7893 -97.7662
   -97.6917 -97.6487 -19.2044 -19.1503 -19.1471 -19.0742 -19.0576 -18.9954
   -18.9925 -18.9747 -18.9639 -18.9603 -18.8481 -18.8199 -18.7233 -18.6728
   -18.6697 -18.6148 -18.5794 -18.5236 -18.5003 -18.4622 -18.4095 -18.3905
   -18.3778 -18.3544 -18.3400 -18.3305 -18.3267 -18.2552 -18.2530 -18.2361
   -17.3165 -16.9797 -16.4189 -16.2795 -16.1012 -15.9876 -15.9729 -15.4572
   -15.4188 -10.6607 -10.2399  -9.8623  -9.5744  -9.4518  -8.9084  -7.6034
    -7.4200  -7.2723  -7.0805  -6.6469  -6.5619  -6.3220  -6.3082  -6.1012
    -6.0206  -5.8721  -5.6951  -5.6192  -5.3688  -5.0893  -5.0085  -4.8277
    -4.6013  -4.4963  -4.3127  -3.9153

     occupation numbers 
     1.0000   1.0000   1.0000   1.0000   1.0000   1.0000   1.0000   1.0000
     1.0000   1.0000   1.0000   1.0000   1.0000   1.0000   1.0000   1.0000
     1.0000   1.0000   1.0000   1.0000   1.0000   1.0000   1.0000   1.0000
     1.0000   1.0000   1.0000   1.0000   1.0000   1.0000   1.0000   1.0000
     1.0000   1.0000   1.0000   1.0000   1.0000   1.0000   1.0000   1.0000
     1.0000   1.0000   1.0000   1.0000   1.0000   1.0000   1.0000   1.0000
     1.0000   1.0000   1.0000   1.0000   1.0000   1.0000   1.0000   1.0000
     1.0000   1.0000   1.0000   1.0000   1.0000   1.0000   1.0000   1.0000
     1.0000   1.0000   1.0000   1.0000   1.0000   1.0000   1.0000   1.0000
     1.0000   1.0000   1.0000   1.0000   1.0000   1.0000   1.0000   1.0000
     1.0000   1.0000   1.0000   1.0000

          k = 0.0000-1.6239 0.0000 (200682 PWs)   bands (ev):

   -98.5140 -98.5140 -98.4086 -98.4086 -98.3688 -98.3688 -98.1613 -98.1255
   -98.0962 -97.8571 -97.8570 -97.8214 -97.8213 -97.7893 -97.7893 -97.7662
   -97.6917 -97.6487 -19.2034 -19.1503 -19.1468 -19.0742 -19.0591 -18.9955
   -18.9922 -18.9747 -18.9636 -18.9605 -18.8463 -18.8225 -18.7234 -18.6729
   -18.6697 -18.6150 -18.5783 -18.5233 -18.4995 -18.4624 -18.4092 -18.3905
   -18.3784 -18.3547 -18.3404 -18.3305 -18.3259 -18.2559 -18.2531 -18.2363
   -17.2327 -16.9971 -16.4557 -16.2712 -16.1201 -15.9996 -15.9913 -15.4572
   -15.4456 -10.6650 -10.2716  -9.7195  -9.5930  -9.4306  -9.0393  -7.6123
    -7.4277  -7.1256  -7.0827  -6.5876  -6.5652  -6.3395  -6.3068  -6.0762
    -5.9762  -5.9108  -5.6656  -5.6284  -5.4155  -5.0757  -5.0211  -4.8034
    -4.6131  -4.4664  -4.3692  -3.8858

     occupation numbers 
     1.0000   1.0000   1.0000   1.0000   1.0000   1.0000   1.0000   1.0000
     1.0000   1.0000   1.0000   1.0000   1.0000   1.0000   1.0000   1.0000
     1.0000   1.0000   1.0000   1.0000   1.0000   1.0000   1.0000   1.0000
     1.0000   1.0000   1.0000   1.0000   1.0000   1.0000   1.0000   1.0000
     1.0000   1.0000   1.0000   1.0000   1.0000   1.0000   1.0000   1.0000
     1.0000   1.0000   1.0000   1.0000   1.0000   1.0000   1.0000   1.0000
     1.0000   1.0000   1.0000   1.0000   1.0000   1.0000   1.0000   1.0000
     1.0000   1.0000   1.0000   1.0000   1.0000   1.0000   1.0000   1.0000
     1.0000   1.0000   1.0000   1.0000   1.0000   1.0000   1.0000   1.0000
     1.0000   1.0000   1.0000   1.0000   1.0000   1.0000   1.0000   1.0000
     1.0000   1.0000   1.0000   1.0000

     highest occupied level (ev):    -3.8858

!    total energy              =   -2880.08654328 Ry
     Harris-Foulkes estimate   =   -2880.08654328 Ry
     estimated scf accuracy    <          6.3E-14 Ry

     The total energy is the sum of the following terms:

     one-electron contribution =   -8935.73865837 Ry
     hartree contribution      =    4461.04445518 Ry
     xc contribution           =    -552.35198852 Ry
     ewald contribution        =    2146.95964842 Ry

     convergence has been achieved in   5 iterations

     negative rho (up, down):  3.982E-04 0.000E+00

     Forces acting on atoms (cartesian axes, Ry/au):

     atom    1 type  1   force =    -0.00000002   -0.00000263   -0.00000990
     atom    2 type  1   force =     0.00000290   -0.00000649   -0.00000225
     atom    3 type  1   force =    -0.00000291   -0.00000648   -0.00000228
     atom    4 type  1   force =     0.00000103    0.00000555   -0.00000121
     atom    5 type  1   force =    -0.00000104    0.00000554   -0.00000123
     atom    6 type  1   force =    -0.00000003   -0.00000222    0.00001465
     atom    7 type  2   force =     0.00000594    0.00000055   -0.00000387
     atom    8 type  2   force =    -0.00000595    0.00000050   -0.00000390
     atom    9 type  2   force =     0.00000002    0.00000853   -0.00000364
     atom   10 type  2   force =     0.00000001   -0.00001169    0.00000675
     atom   11 type  2   force =    -0.00000003    0.00000996    0.00000660
     atom   12 type  2   force =     0.00000336    0.00000980   -0.00000508
     atom   13 type  2   force =    -0.00000331    0.00000978   -0.00000512
     atom   14 type  2   force =     0.00000455   -0.00001036    0.00000525
     atom   15 type  2   force =    -0.00000453   -0.00001036    0.00000524
     The non-local contrib.  to forces
     atom    1 type  1   force =     0.00001727   -0.04940047   -0.23533161
     atom    2 type  1   force =     0.29909388   -0.17829452   -0.07327065
     atom    3 type  1   force =    -0.29908289   -0.17829534   -0.07331285
     atom    4 type  1   force =     0.13408326    0.17543108   -0.22828690
     atom    5 type  1   force =    -0.13404921    0.17542986   -0.22830590
     atom    6 type  1   force =    -0.00000371    0.09751983    0.05790847
     atom    7 type  2   force =     0.34841748   -0.08977750   -0.08463324
     atom    8 type  2   force =    -0.34840529   -0.08977893   -0.08468297
     atom    9 type  2   force =     0.00002067    0.11254309   -0.28327782
     atom   10 type  2   force =    -0.00002358   -0.09087029    0.32949793
     atom   11 type  2   force =     0.00000158    0.08741238   -0.03157726
     atom   12 type  2   force =     0.24038748    0.10362757   -0.17985535
     atom   13 type  2   force =    -0.24036212    0.10362750   -0.17988946
     atom   14 type  2   force =     0.23895511   -0.13865679    0.16632805
     atom   15 type  2   force =    -0.23897784   -0.13865622    0.16629549
     The ionic contribution  to forces
     atom    1 type  1   force =    -0.00496820  -11.98079755   69.51919035
     atom    2 type  1   force =   -62.03080589   -2.03875196  -38.81005059
     atom    3 type  1   force =    62.03626444   -2.03878162  -38.80138927
     atom    4 type  1   force =   -65.03738137    4.95573392   34.98554052
     atom    5 type  1   force =    65.03248505    4.95573890   34.99469747
     atom    6 type  1   force =     0.00469233    4.98791512  -65.64155870
     atom    7 type  2   force =   -34.98795169    1.46253156    2.92683915
     atom    8 type  2   force =    34.98752968    1.46255758    2.93184119
     atom    9 type  2   force =    -0.00214187    1.25686414   29.37841935
     atom   10 type  2   force =     0.00219688   -0.29793639  -30.47729592
     atom   11 type  2   force =     0.00021345   -4.06635121   -2.28791426
     atom   12 type  2   force =   -26.20253888   -3.64189624   25.83978489
     atom   13 type  2   force =    26.19889803   -3.64189172   25.84337471
     atom   14 type  2   force =   -25.35363093    4.31253642  -25.20244942
     atom   15 type  2   force =    25.35713896    4.31252905  -25.19902947
     The local contribution  to forces
     atom    1 type  1   force =     0.00495093   12.03022835  -69.28525612
     atom    2 type  1   force =    61.73415208    2.21540966   38.88317363
     atom    3 type  1   force =   -61.73962177    2.21544008   38.87455416
     atom    4 type  1   force =    64.90325788   -5.12943336  -34.75896070
     atom    5 type  1   force =   -64.89839548   -5.12943715  -34.76809865
     atom    6 type  1   force =    -0.00468860   -5.08554258   65.58311981
     atom    7 type  2   force =    34.67210872   -1.38284313   -2.84938767
     atom    8 type  2   force =   -34.67169780   -1.38286787   -2.85434466
     atom    9 type  2   force =     0.00212322   -1.35709930  -29.12249531
     atom   10 type  2   force =    -0.00217559    0.37866746   30.18027937
     atom   11 type  2   force =    -0.00021472    3.98591680    2.31375051
     atom   12 type  2   force =    25.98297342    3.54764978  -25.67521760
     atom   13 type  2   force =   -25.97935572    3.54764530  -25.67877629
     atom   14 type  2   force =    25.13572591   -4.18606800   25.04994926
     atom   15 type  2   force =   -25.13921301   -4.18606109   25.04655901
     The core correction contribution to forces
     atom    1 type  1   force =    -0.00000002   -0.00003271    0.00138743
     atom    2 type  1   force =    -0.00243701    0.00163063    0.00014529
     atom    3 type  1   force =     0.00243714    0.00163069    0.00014562
     atom    4 type  1   force =     0.00004149   -0.00172619    0.00170569
     atom    5 type  1   force =    -0.00004163   -0.00172619    0.00170564
     atom    6 type  1   force =    -0.00000005    0.00010541    0.00054477
     atom    7 type  2   force =    -0.03256851    0.01008968    0.00717770
     atom    8 type  2   force =     0.03256741    0.01008978    0.00718236
     atom    9 type  2   force =    -0.00000200   -0.01229939    0.02735001
     atom   10 type  2   force =     0.00000230    0.01012760   -0.03247468
     atom   11 type  2   force =    -0.00000034   -0.00696794    0.00574744
     atom   12 type  2   force =    -0.02081867   -0.00937124    0.01528288
     atom   13 type  2   force =     0.02081653   -0.00937123    0.01528581
     atom   14 type  2   force =    -0.02104546    0.01217800   -0.01382269
     atom   15 type  2   force =     0.02104728    0.01217789   -0.01381984
     The Hubbard contrib.    to forces
     atom    1 type  1   force =     0.00000000    0.00000000    0.00000000
     atom    2 type  1   force =     0.00000000    0.00000000    0.00000000
     atom    3 type  1   force =     0.00000000    0.00000000    0.00000000
     atom    4 type  1   force =     0.00000000    0.00000000    0.00000000
     atom    5 type  1   force =     0.00000000    0.00000000    0.00000000
     atom    6 type  1   force =     0.00000000    0.00000000    0.00000000
     atom    7 type  2   force =     0.00000000    0.00000000    0.00000000
     atom    8 type  2   force =     0.00000000    0.00000000    0.00000000
     atom    9 type  2   force =     0.00000000    0.00000000    0.00000000
     atom   10 type  2   force =     0.00000000    0.00000000    0.00000000
     atom   11 type  2   force =     0.00000000    0.00000000    0.00000000
     atom   12 type  2   force =     0.00000000    0.00000000    0.00000000
     atom   13 type  2   force =     0.00000000    0.00000000    0.00000000
     atom   14 type  2   force =     0.00000000    0.00000000    0.00000000
     atom   15 type  2   force =     0.00000000    0.00000000    0.00000000
     The SCF correction term to forces
     atom    1 type  1   force =    -0.00000000   -0.00000020   -0.00000000
     atom    2 type  1   force =    -0.00000016   -0.00000026    0.00000002
     atom    3 type  1   force =     0.00000017   -0.00000025    0.00000001
     atom    4 type  1   force =    -0.00000022    0.00000015    0.00000014
     atom    5 type  1   force =     0.00000023    0.00000015    0.00000014
     atom    6 type  1   force =     0.00000000    0.00000004    0.00000025
     atom    7 type  2   force =    -0.00000005   -0.00000001    0.00000013
     atom    8 type  2   force =     0.00000006   -0.00000001    0.00000013
[...]
     1.0000   1.0000   1.0000   1.0000   1.0000   1.0000   1.0000   1.0000
     1.0000   1.0000   1.0000   1.0000   1.0000   1.0000   1.0000   1.0000
     1.0000   1.0000   1.0000   1.0000   1.0000   1.0000   1.0000   1.0000
     1.0000   1.0000   1.0000   1.0000   1.0000   1.0000   1.0000   1.0000
     1.0000   1.0000   1.0000   1.0000   1.0000   1.0000   1.0000   1.0000
     1.0000   1.0000   1.0000   1.0000   1.0000   1.0000   1.0000   1.0000
     1.0000   1.0000   1.0000   1.0000   1.0000   1.0000   1.0000   1.0000
     1.0000   1.0000   1.0000   1.0000

          k = 0.0000 1.2179 0.0000 (200781 PWs)   bands (ev):

   -98.5140 -98.5140 -98.4086 -98.4086 -98.3688 -98.3688 -98.1613 -98.1255
   -98.0962 -97.8571 -97.8570 -97.8214 -97.8214 -97.7893 -97.7893 -97.7662
   -97.6917 -97.6487 -19.2044 -19.1503 -19.1471 -19.0742 -19.0576 -18.9954
   -18.9925 -18.9747 -18.9639 -18.9603 -18.8481 -18.8199 -18.7233 -18.6728
   -18.6697 -18.6148 -18.5794 -18.5236 -18.5003 -18.4622 -18.4095 -18.3905
   -18.3778 -18.3544 -18.3400 -18.3305 -18.3267 -18.2552 -18.2530 -18.2361
   -17.3165 -16.9797 -16.4189 -16.2795 -16.1012 -15.9876 -15.9729 -15.4572
   -15.4188 -10.6607 -10.2399  -9.8623  -9.5744  -9.4518  -8.9084  -7.6034
    -7.4200  -7.2723  -7.0805  -6.6469  -6.5619  -6.3220  -6.3082  -6.1012
    -6.0206  -5.8721  -5.6951  -5.6192  -5.3688  -5.0893  -5.0085  -4.8277
    -4.6013  -4.4963  -4.3127  -3.9153

     occupation numbers 
     1.0000   1.0000   1.0000   1.0000   1.0000   1.0000   1.0000   1.0000
     1.0000   1.0000   1.0000   1.0000   1.0000   1.0000   1.0000   1.0000
     1.0000   1.0000   1.0000   1.0000   1.0000   1.0000   1.0000   1.0000
     1.0000   1.0000   1.0000   1.0000   1.0000   1.0000   1.0000   1.0000
     1.0000   1.0000   1.0000   1.0000   1.0000   1.0000   1.0000   1.0000
     1.0000   1.0000   1.0000   1.0000   1.0000   1.0000   1.0000   1.0000
     1.0000   1.0000   1.0000   1.0000   1.0000   1.0000   1.0000   1.0000
     1.0000   1.0000   1.0000   1.0000   1.0000   1.0000   1.0000   1.0000
     1.0000   1.0000   1.0000   1.0000   1.0000   1.0000   1.0000   1.0000
     1.0000   1.0000   1.0000   1.0000   1.0000   1.0000   1.0000   1.0000
     1.0000   1.0000   1.0000   1.0000

          k = 0.0000-1.6239 0.0000 (200682 PWs)   bands (ev):

   -98.5140 -98.5140 -98.4086 -98.4086 -98.3688 -98.3688 -98.1613 -98.1255
   -98.0962 -97.8571 -97.8570 -97.8214 -97.8213 -97.7893 -97.7893 -97.7662
   -97.6917 -97.6487 -19.2034 -19.1503 -19.1468 -19.0742 -19.0591 -18.9955
   -18.9922 -18.9747 -18.9636 -18.9605 -18.8464 -18.8225 -18.7234 -18.6729
   -18.6697 -18.6150 -18.5783 -18.5233 -18.4995 -18.4624 -18.4092 -18.3905
   -18.3784 -18.3547 -18.3404 -18.3305 -18.3259 -18.2559 -18.2531 -18.2363
   -17.2328 -16.9971 -16.4557 -16.2712 -16.1201 -15.9996 -15.9913 -15.4572
   -15.4456 -10.6650 -10.2716  -9.7195  -9.5930  -9.4306  -9.0393  -7.6123
    -7.4277  -7.1256  -7.0827  -6.5876  -6.5652  -6.3395  -6.3068  -6.0763
    -5.9762  -5.9108  -5.6656  -5.6284  -5.4155  -5.0757  -5.0211  -4.8034
    -4.6131  -4.4664  -4.3692  -3.8858

     occupation numbers 
     1.0000   1.0000   1.0000   1.0000   1.0000   1.0000   1.0000   1.0000
     1.0000   1.0000   1.0000   1.0000   1.0000   1.0000   1.0000   1.0000
     1.0000   1.0000   1.0000   1.0000   1.0000   1.0000   1.0000   1.0000
     1.0000   1.0000   1.0000   1.0000   1.0000   1.0000   1.0000   1.0000
     1.0000   1.0000   1.0000   1.0000   1.0000   1.0000   1.0000   1.0000
     1.0000   1.0000   1.0000   1.0000   1.0000   1.0000   1.0000   1.0000
     1.0000   1.0000   1.0000   1.0000   1.0000   1.0000   1.0000   1.0000
     1.0000   1.0000   1.0000   1.0000   1.0000   1.0000   1.0000   1.0000
     1.0000   1.0000   1.0000   1.0000   1.0000   1.0000   1.0000   1.0000
     1.0000   1.0000   1.0000   1.0000   1.0000   1.0000   1.0000   1.0000
     1.0000   1.0000   1.0000   1.0000

     highest occupied level (ev):    -3.8858

!    total energy              =   -2880.08654329 Ry
     Harris-Foulkes estimate   =   -2880.08654329 Ry
     estimated scf accuracy    <          6.9E-14 Ry

     The total energy is the sum of the following terms:

     one-electron contribution =   -8935.74628056 Ry
     hartree contribution      =    4461.04825888 Ry
     xc contribution           =    -552.35200826 Ry
     ewald contribution        =    2146.96348664 Ry

     convergence has been achieved in   5 iterations

     negative rho (up, down):  3.982E-04 0.000E+00

     Forces acting on atoms (cartesian axes, Ry/au):

     atom    1 type  1   force =    -0.00000001   -0.00000101   -0.00000952
     atom    2 type  1   force =     0.00000312   -0.00000685   -0.00000219
     atom    3 type  1   force =    -0.00000312   -0.00000685   -0.00000221
     atom    4 type  1   force =     0.00000104    0.00000580   -0.00000108
     atom    5 type  1   force =    -0.00000105    0.00000578   -0.00000111
     atom    6 type  1   force =    -0.00000003   -0.00000326    0.00001368
     atom    7 type  2   force =     0.00000479    0.00000058   -0.00000324
     atom    8 type  2   force =    -0.00000480    0.00000053   -0.00000328
     atom    9 type  2   force =     0.00000002    0.00000756   -0.00000316
     atom   10 type  2   force =     0.00000001   -0.00001118    0.00000567
     atom   11 type  2   force =    -0.00000003    0.00000923    0.00000598
     atom   12 type  2   force =     0.00000304    0.00000897   -0.00000430
     atom   13 type  2   force =    -0.00000300    0.00000895   -0.00000435
     atom   14 type  2   force =     0.00000432   -0.00000912    0.00000455
     atom   15 type  2   force =    -0.00000431   -0.00000912    0.00000454
     The non-local contrib.  to forces
     atom    1 type  1   force =     0.00001729   -0.04939903   -0.23533117
     atom    2 type  1   force =     0.29909398   -0.17829827   -0.07327263
     atom    3 type  1   force =    -0.29908301   -0.17829909   -0.07331482
     atom    4 type  1   force =     0.13408541    0.17543568   -0.22828726
     atom    5 type  1   force =    -0.13405141    0.17543445   -0.22830625
     atom    6 type  1   force =    -0.00000370    0.09751830    0.05790706
     atom    7 type  2   force =     0.34841652   -0.08977807   -0.08463260
     atom    8 type  2   force =    -0.34840433   -0.08977950   -0.08468234
     atom    9 type  2   force =     0.00002066    0.11254315   -0.28327756
     atom   10 type  2   force =    -0.00002358   -0.09086930    0.32949742
     atom   11 type  2   force =     0.00000158    0.08741115   -0.03157907
     atom   12 type  2   force =     0.24038696    0.10362679   -0.17985554
     atom   13 type  2   force =    -0.24036162    0.10362673   -0.17988965
     atom   14 type  2   force =     0.23895468   -0.13865602    0.16632803
     atom   15 type  2   force =    -0.23897741   -0.13865544    0.16629547
     The ionic contribution  to forces
     atom    1 type  1   force =    -0.00496809  -11.98074541   69.51917851
     atom    2 type  1   force =   -62.03084722   -2.03873548  -38.81019666
     atom    3 type  1   force =    62.03630581   -2.03876498  -38.80153533
     atom    4 type  1   force =   -65.03745304    4.95572904   34.98566148
     atom    5 type  1   force =    65.03255674    4.95573379   34.99481811
     atom    6 type  1   force =     0.00469222    4.98784202  -65.64149791
     atom    7 type  2   force =   -34.98800570    1.46254184    2.92683759
     atom    8 type  2   force =    34.98758367    1.46256779    2.93183938
     atom    9 type  2   force =    -0.00214162    1.25681484   29.37846060
     atom   10 type  2   force =     0.00219694   -0.29793024  -30.47734353
     atom   11 type  2   force =     0.00021335   -4.06636647   -2.28789812
     atom   12 type  2   force =   -26.20253895   -3.64190833   25.83983267
     atom   13 type  2   force =    26.19889809   -3.64190398   25.84342205
     atom   14 type  2   force =   -25.35363012    4.31256636  -25.20249944
     atom   15 type  2   force =    25.35713791    4.31255922  -25.19907938
     The local contribution  to forces
     atom    1 type  1   force =     0.00495082   12.03017621  -69.28524387
     atom    2 type  1   force =    61.73419334    2.21539638   38.88332195
     atom    3 type  1   force =   -61.73966304    2.21542664   38.87470246
     atom    4 type  1   force =    64.90332707   -5.12943249  -34.75908108
     atom    5 type  1   force =   -64.89846463   -5.12943602  -34.76821869
     atom    6 type  1   force =    -0.00468850   -5.08546896   65.58305935
     atom    7 type  2   force =    34.67216230   -1.38285290   -2.84938589
     atom    8 type  2   force =   -34.67175137   -1.38287756   -2.85434265
     atom    9 type  2   force =     0.00212298   -1.35705111  -29.12253628
     atom   10 type  2   force =    -0.00217565    0.37866098   30.18032636
     atom   11 type  2   force =    -0.00021461    3.98593240    2.31373549
     atom   12 type  2   force =    25.98297361    3.54766169  -25.67526435
     atom   13 type  2   force =   -25.97935591    3.54765738  -25.67882261
     atom   14 type  2   force =    25.13572511   -4.18609735   25.04999853
     atom   15 type  2   force =   -25.13921198   -4.18609068   25.04660817
     The core correction contribution to forces
     atom    1 type  1   force =    -0.00000002   -0.00003275    0.00138741
     atom    2 type  1   force =    -0.00243702    0.00163067    0.00014531
     atom    3 type  1   force =     0.00243715    0.00163074    0.00014564
     atom    4 type  1   force =     0.00004148   -0.00172624    0.00170568
     atom    5 type  1   force =    -0.00004162   -0.00172624    0.00170563
     atom    6 type  1   force =    -0.00000005    0.00010545    0.00054479
     atom    7 type  2   force =    -0.03256832    0.01008974    0.00717760
     atom    8 type  2   force =     0.03256722    0.01008984    0.00718226
     atom    9 type  2   force =    -0.00000200   -0.01229930    0.02734996
     atom   10 type  2   force =     0.00000230    0.01012748   -0.03247457
     atom   11 type  2   force =    -0.00000034   -0.00696778    0.00574766
     atom   12 type  2   force =    -0.02081862   -0.00937111    0.01528285
     atom   13 type  2   force =     0.02081648   -0.00937111    0.01528579
     atom   14 type  2   force =    -0.02104542    0.01217784   -0.01382263
     atom   15 type  2   force =     0.02104724    0.01217773   -0.01381978
     The Hubbard contrib.    to forces
     atom    1 type  1   force =     0.00000000    0.00000000    0.00000000
     atom    2 type  1   force =     0.00000000    0.00000000    0.00000000
     atom    3 type  1   force =     0.00000000    0.00000000    0.00000000
     atom    4 type  1   force =     0.00000000    0.00000000    0.00000000
     atom    5 type  1   force =     0.00000000    0.00000000    0.00000000
     atom    6 type  1   force =     0.00000000    0.00000000    0.00000000
     atom    7 type  2   force =     0.00000000    0.00000000    0.00000000
     atom    8 type  2   force =     0.00000000    0.00000000    0.00000000
     atom    9 type  2   force =     0.00000000    0.00000000    0.00000000
     atom   10 type  2   force =     0.00000000    0.00000000    0.00000000
     atom   11 type  2   force =     0.00000000    0.00000000    0.00000000
     atom   12 type  2   force =     0.00000000    0.00000000    0.00000000
     atom   13 type  2   force =     0.00000000    0.00000000    0.00000000
     atom   14 type  2   force =     0.00000000    0.00000000    0.00000000
     atom   15 type  2   force =     0.00000000    0.00000000    0.00000000
     The SCF correction term to forces
     atom    1 type  1   force =     0.00000000    0.00000001   -0.00000050
     atom    2 type  1   force =     0.00000004   -0.00000012   -0.00000025
     atom    3 type  1   force =    -0.00000003   -0.00000013   -0.00000026
     atom    4 type  1   force =     0.00000013   -0.00000016    0.00000001
     atom    5 type  1   force =    -0.00000013   -0.00000017   -0.00000000
     atom    6 type  1   force =    -0.00000002   -0.00000004    0.00000028
     atom    7 type  2   force =    -0.00000001    0.00000001   -0.00000003
     atom    8 type  2   force =     0.00000001    0.00000001   -0.00000004
     atom    9 type  2   force =    -0.00000000    0.00000001    0.00000002
     atom   10 type  2   force =    -0.00000000   -0.00000007   -0.00000010
     atom   11 type  2   force =    -0.00000000   -0.00000005   -0.00000007
     atom   12 type  2   force =     0.00000003   -0.00000003   -0.00000003
     atom   13 type  2   force =    -0.00000004   -0.00000003   -0.00000003
     atom   14 type  2   force =     0.00000006    0.00000008   -0.00000005
     atom   15 type  2   force =    -0.00000006    0.00000008   -0.00000005

     Total force =     0.000037     Total SCF correction =     0.000001


     Computing stress (Cartesian axis) and pressure


     negative rho (up, down):  3.982E-04 0.000E+00
          total   stress  (Ry/bohr**3)                   (kbar)     P=   -0.12
  -0.00000121  -0.00000000  -0.00000000         -0.18     -0.00     -0.00
  -0.00000000  -0.00000002   0.00000002         -0.00     -0.00      0.00
  -0.00000000   0.00000002  -0.00000125         -0.00      0.00     -0.18

     kinetic stress (kbar)   1132.30     -0.00     -0.00
                               -0.00   1138.15     16.83
                               -0.00     16.83   1145.71

     local   stress (kbar)   1277.16     -0.12      0.26
                               -0.12 -58208.00   1770.45
                                0.26   1770.45  -5078.59

     nonloc. stress (kbar)    918.03      0.00     -0.00
                                0.00    922.02     -0.40
                               -0.00     -0.40    920.84

     hartree stress (kbar)   2330.21      0.05     -0.14
                                0.05  31582.17   -732.98
                               -0.14   -732.98   5566.94

     exc-cor stress (kbar)   1528.85      0.00      0.00
                                0.00   1529.13     -0.29
                                0.00     -0.29   1528.73

     corecor stress (kbar)  -2411.03      0.00      0.00
                                0.00  -2411.46     -0.45
                                0.00     -0.45  -2411.70

     ewald   stress (kbar)  -4775.70      0.07     -0.13
                                0.07  25448.00  -1053.16
                               -0.13  -1053.16  -1672.12

     hubbard stress (kbar)      0.00      0.00      0.00
                                0.00      0.00      0.00
                                0.00      0.00      0.00

     london  stress (kbar)      0.00      0.00      0.00
                                0.00      0.00      0.00
                                0.00      0.00      0.00

     DFT-D3  stress (kbar)      0.00      0.00      0.00
                                0.00      0.00      0.00
                                0.00      0.00      0.00

     XDM     stress (kbar)      0.00      0.00      0.00
                                0.00      0.00      0.00
                                0.00      0.00      0.00

     dft-nl  stress (kbar)      0.00      0.00      0.00
                                0.00      0.00      0.00
                                0.00      0.00      0.00

     TS-vdW  stress (kbar)      0.00      0.00      0.00
                                0.00      0.00      0.00
                                0.00      0.00      0.00


     Message from routine bfgs:
     history already reset at previous step: stopping

     bfgs converged in   4 scf cycles and   3 bfgs steps
     (criteria: energy <  1.0E-07 Ry, force <  1.0E-06 Ry/Bohr)

     End of BFGS Geometry Optimization

     Final energy   =   -2880.0865432861 Ry
Begin final coordinates

ATOMIC_POSITIONS (crystal)
Ga       0.524834646   0.096954881   0.647937794
Ga       0.432808390   0.844527942   0.443083931
Ga       0.616889685   0.844528190   0.443096944
Ga       0.440853611   0.505540248   0.594186253
Ga       0.608823220   0.505540657   0.594198256
Ga       0.524851488   0.284715455   0.408044955
Se       0.366778037   0.719103739   0.528220448
Se       0.682907956   0.719104830   0.528242940
Se       0.524833730   0.710734953   0.659392449
Se       0.524853309   0.671674785   0.382760180
Se       0.524843044   0.285827212   0.530107833
Se       0.415039921   0.226990505   0.670780301
Se       0.634626106   0.226990706   0.670795887
Se       0.416315836   0.156908058   0.380028375
Se       0.633391021   0.156907841   0.380043460
End final coordinates



     Writing output data file NR.save/
 
     init_run     :      9.56s CPU     11.09s WALL (       1 calls)
     electrons    :    401.02s CPU    419.17s WALL (       4 calls)
     update_pot   :      9.82s CPU     10.02s WALL (       3 calls)
     forces       :     17.72s CPU     18.75s WALL (       4 calls)
     stress       :     74.31s CPU     76.36s WALL (       4 calls)

     Called by init_run:
     wfcinit      :      3.70s CPU      4.30s WALL (       1 calls)
     wfcinit:atom :      0.04s CPU      0.05s WALL (       2 calls)
     wfcinit:wfcr :      3.53s CPU      4.08s WALL (       2 calls)
     potinit      :      1.99s CPU      2.19s WALL (       1 calls)
     hinit0       :      1.37s CPU      1.79s WALL (       1 calls)

     Called by electrons:
     c_bands      :    271.31s CPU    275.61s WALL (      33 calls)
     sum_band     :     68.32s CPU     74.96s WALL (      33 calls)
     v_of_rho     :     44.41s CPU     46.12s WALL (      34 calls)
     v_h          :      2.44s CPU      2.61s WALL (      34 calls)
     v_xc         :     51.90s CPU     53.77s WALL (      42 calls)
     newd         :     15.61s CPU     19.64s WALL (      34 calls)
     mix_rho      :      5.14s CPU      5.45s WALL (      33 calls)

     Called by c_bands:
     init_us_2    :      3.54s CPU      3.59s WALL (     150 calls)
     cegterg      :    260.10s CPU    264.32s WALL (      66 calls)

     Called by sum_band:
     sum_band:bec :      0.01s CPU      0.01s WALL (      66 calls)
     addusdens    :     17.43s CPU     23.46s WALL (      33 calls)

     Called by *egterg:
     h_psi        :    217.26s CPU    219.22s WALL (     243 calls)
     s_psi        :     11.62s CPU     11.62s WALL (     243 calls)
     g_psi        :      0.73s CPU      0.74s WALL (     175 calls)
     cdiaghg      :      2.60s CPU      3.35s WALL (     229 calls)
     cegterg:over :     10.60s CPU     10.68s WALL (     175 calls)
     cegterg:upda :     10.24s CPU     10.83s WALL (     175 calls)
     cegterg:last :      4.90s CPU      4.92s WALL (      74 calls)
     cdiaghg:chol :      0.20s CPU      0.60s WALL (     229 calls)
     cdiaghg:inve :      0.04s CPU      0.05s WALL (     229 calls)
     cdiaghg:para :      0.46s CPU      0.53s WALL (     458 calls)

     Called by h_psi:
     h_psi:pot    :    215.92s CPU    216.91s WALL (     243 calls)
     h_psi:calbec :     10.72s CPU     10.84s WALL (     243 calls)
     vloc_psi     :    193.58s CPU    194.44s WALL (     243 calls)
     add_vuspsi   :     11.61s CPU     11.62s WALL (     243 calls)

     General routines
     calbec       :     16.72s CPU     16.91s WALL (     349 calls)
     fft          :     47.80s CPU     50.61s WALL (     540 calls)
     ffts         :      0.96s CPU      1.13s WALL (      67 calls)
     fftw         :    185.58s CPU    186.39s WALL (   35594 calls)
     interpolate  :      2.38s CPU      2.62s WALL (      34 calls)
 
     Parallel routines
     fft_scatt_xy :     37.83s CPU     37.98s WALL (   36201 calls)
     fft_scatt_yz :     85.56s CPU     88.64s WALL (   36201 calls)
 
     PWSCF        :   8m34.80s CPU   9m 0.98s WALL

 
   This run was terminated on:  15:23: 3  29Apr2021            

=------------------------------------------------------------------------------=
   JOB DONE.
=------------------------------------------------------------------------------=
