
     Program PWSCF v.6.4.1 starts on 29Apr2021 at 14:44:39 

     This program is part of the open-source Quantum ESPRESSO suite
     for quantum simulation of materials; please cite
         "P. Giannozzi et al., J. Phys.:Condens. Matter 21 395502 (2009);
         "P. Giannozzi et al., J. Phys.:Condens. Matter 29 465901 (2017);
          URL http://www.quantum-espresso.org", 
     in publications or presentations arising from this work. More details at
     http://www.quantum-espresso.org/quote

     Parallel version (MPI), running on    64 processors

     MPI processes distributed on     1 nodes
     K-points division:     npool     =       4
     R & G space division:  proc/nbgrp/npool/nimage =      16
     Waiting for input...
     Reading input from standard input

     Current dimensions of program PWSCF are:
     Max number of different atomic species (ntypx) = 10
     Max number of k-points (npk) =  40000
     Max angular momentum in pseudopotentials (lmaxx) =  3

     Subspace diagonalization in iterative solution of the eigenvalue problem:
     one sub-group per band group will be used
     scalapack distributed-memory algorithm (size of sub-group:  2*  2 procs)

 
     Parallelization info
     --------------------
     sticks:   dense  smooth     PW     G-vecs:    dense   smooth      PW
     Min        1313     700    185               257855   100422   13713
     Max        1314     702    186               257860   100425   13718
     Sum       21017   11205   2965              4125711  1606759  219435
 


     bravais-lattice index     =            0
     lattice parameter (alat)  =      37.7945  a.u.
     unit-cell volume          =   16622.4977 (a.u.)^3
     number of atoms/cell      =           15
     number of atomic types    =            2
     number of electrons       =       168.00
     number of Kohn-Sham states=           84
     kinetic-energy cutoff     =      80.0000  Ry
     charge density cutoff     =     600.0000  Ry
     convergence threshold     =      1.0E-11
     mixing beta               =       0.5000
     number of iterations used =            8  plain     mixing
     Exchange-correlation      = SLA  PW   PSX  PSC ( 1  4 10  8 0 0)
     Using LIBXC version       =    4   3   4
     nstep                     =          200


     celldm(1)=  37.794523  celldm(2)=   0.000000  celldm(3)=   0.000000
     celldm(4)=   0.000000  celldm(5)=   0.000000  celldm(6)=   0.000000

     crystal axes: (cart. coord. in units of alat)
               a(1) = (   1.000000   0.000000   0.000000 )  
               a(2) = (   0.000000   0.307900   0.000000 )  
               a(3) = (   0.000000   0.000000   1.000000 )  

     reciprocal axes: (cart. coord. in units 2 pi/alat)
               b(1) = (  1.000000  0.000000  0.000000 )  
               b(2) = (  0.000000  3.247808  0.000000 )  
               b(3) = (  0.000000  0.000000  1.000000 )  


     PseudoPot. # 1 for Ga read from file:
     ./GBRV_PBEsol/ga_pbesol_v1.4.uspp.F.UPF
     MD5 check sum: c51a1280f7300f419a8cd4df5a064fc3
     Pseudo is Ultrasoft + core correction, Zval = 19.0
     Generated by new atomic code, or converted to UPF format
     Using radial grid of  871 points,  6 beta functions with: 
                l(1) =   0
                l(2) =   0
                l(3) =   1
                l(4) =   1
                l(5) =   2
                l(6) =   2
     Q(r) pseudized with  8 coefficients,  rinner =    1.250   1.250   1.250
                                                       1.250   1.250

     PseudoPot. # 2 for Se read from file:
     ./GBRV_PBEsol/se_pbesol_v1.uspp.F.UPF
     MD5 check sum: a3b4745ad650bb7419ce2e0d5f176975
     Pseudo is Ultrasoft + core correction, Zval =  6.0
     Generated by new atomic code, or converted to UPF format
     Using radial grid of  877 points,  6 beta functions with: 
                l(1) =   0
                l(2) =   0
                l(3) =   1
                l(4) =   1
                l(5) =   2
                l(6) =   2
     Q(r) pseudized with  8 coefficients,  rinner =    1.300   1.300   1.300
                                                       1.300   1.300

     atomic species   valence    mass     pseudopotential
        Ga            19.00    69.72300     Ga( 1.00)
        Se             6.00    78.97100     Se( 1.00)

     No symmetry found


                                    s                        frac. trans.

      isym =  1     identity                                     

 cryst.   s( 1) = (     1          0          0      )
                  (     0          1          0      )
                  (     0          0          1      )

 cart.    s( 1) = (  1.0000000  0.0000000  0.0000000 )
                  (  0.0000000  1.0000000  0.0000000 )
                  (  0.0000000  0.0000000  1.0000000 )


   Cartesian axes

     site n.     atom                  positions (alat units)
         1           Ga  tau(   1) = (   0.5248346   0.0298543   0.6479391  )
         2           Ga  tau(   2) = (   0.4328083   0.2600300   0.4430852  )
         3           Ga  tau(   3) = (   0.6168898   0.2600301   0.4430982  )
         4           Ga  tau(   4) = (   0.4408536   0.1556555   0.5941859  )
         5           Ga  tau(   5) = (   0.6088233   0.1556556   0.5941979  )
         6           Ga  tau(   6) = (   0.5248515   0.0876637   0.4080430  )
         7           Se  tau(   7) = (   0.3667764   0.2214120   0.5282213  )
         8           Se  tau(   8) = (   0.6829096   0.2214123   0.5282438  )
         9           Se  tau(   9) = (   0.5248337   0.2188327   0.6593934  )
        10           Se  tau(  10) = (   0.5248533   0.2068109   0.3827584  )
        11           Se  tau(  11) = (   0.5248430   0.0880042   0.5301062  )
        12           Se  tau(  12) = (   0.4150389   0.0698880   0.6707820  )
        13           Se  tau(  13) = (   0.6346271   0.0698881   0.6707976  )
        14           Se  tau(  14) = (   0.4163146   0.0483152   0.3800264  )
        15           Se  tau(  15) = (   0.6333922   0.0483151   0.3800415  )

   Crystallographic axes

     site n.     atom                  positions (cryst. coord.)
         1           Ga  tau(   1) = (  0.5248346  0.0969611  0.6479391  )
         2           Ga  tau(   2) = (  0.4328083  0.8445274  0.4430852  )
         3           Ga  tau(   3) = (  0.6168898  0.8445277  0.4430982  )
         4           Ga  tau(   4) = (  0.4408536  0.5055391  0.5941859  )
         5           Ga  tau(   5) = (  0.6088233  0.5055395  0.5941979  )
         6           Ga  tau(   6) = (  0.5248515  0.2847148  0.4080430  )
         7           Se  tau(   7) = (  0.3667764  0.7191035  0.5282213  )
         8           Se  tau(   8) = (  0.6829096  0.7191046  0.5282438  )
         9           Se  tau(   9) = (  0.5248337  0.7107267  0.6593934  )
        10           Se  tau(  10) = (  0.5248533  0.6716821  0.3827584  )
        11           Se  tau(  11) = (  0.5248430  0.2858208  0.5301062  )
        12           Se  tau(  12) = (  0.4150389  0.2269828  0.6707820  )
        13           Se  tau(  13) = (  0.6346271  0.2269831  0.6707976  )
        14           Se  tau(  14) = (  0.4163146  0.1569185  0.3800264  )
        15           Se  tau(  15) = (  0.6333922  0.1569183  0.3800415  )

     number of k points=     5
                       cart. coord. in units 2pi/alat
        k(    1) = (   0.0000000   0.0000000   0.0000000), wk =   0.2500000
        k(    2) = (   0.0000000   0.4059760   0.0000000), wk =   0.5000000
        k(    3) = (   0.0000000   0.8119519   0.0000000), wk =   0.5000000
        k(    4) = (   0.0000000   1.2179279   0.0000000), wk =   0.5000000
        k(    5) = (   0.0000000  -1.6239039   0.0000000), wk =   0.2500000

                       cryst. coord.
        k(    1) = (   0.0000000   0.0000000   0.0000000), wk =   0.2500000
        k(    2) = (   0.0000000   0.1250000   0.0000000), wk =   0.5000000
        k(    3) = (   0.0000000   0.2500000   0.0000000), wk =   0.5000000
        k(    4) = (   0.0000000   0.3750000   0.0000000), wk =   0.5000000
        k(    5) = (   0.0000000  -0.5000000   0.0000000), wk =   0.2500000

     Dense  grid:  4125711 G-vectors     FFT dimensions: ( 300,  96, 300)

     Smooth grid:  1606759 G-vectors     FFT dimensions: ( 216,  72, 216)

     Dynamical RAM for                 wfc:      16.09 MB

     Dynamical RAM for     wfc (w. buffer):      48.27 MB

     Dynamical RAM for           str. fact:       7.87 MB

     Dynamical RAM for           local pot:       0.00 MB

     Dynamical RAM for          nlocal pot:      51.72 MB

     Dynamical RAM for                qrad:      47.23 MB

     Dynamical RAM for          rho,v,vnew:      24.33 MB

     Dynamical RAM for               rhoin:       8.11 MB

     Dynamical RAM for            rho*nmix:      62.95 MB

     Dynamical RAM for           G-vectors:      15.52 MB

     Dynamical RAM for          h,s,v(r/c):       1.29 MB

     Dynamical RAM for          <psi|beta>:       0.35 MB

     Dynamical RAM for                 psi:      64.36 MB

     Dynamical RAM for                hpsi:      64.36 MB

     Dynamical RAM for                spsi:      64.36 MB

     Dynamical RAM for      wfcinit/wfcrot:      41.64 MB

     Dynamical RAM for           addusdens:     194.76 MB

     Dynamical RAM for          addusforce:     227.28 MB

     Dynamical RAM for         addusstress:     199.19 MB

     Estimated static dynamical RAM per process >     298.67 MB

     Estimated max dynamical RAM per process >     525.96 MB

     Estimated total dynamical RAM >      32.87 GB

     Initial potential from superposition of free atoms

     starting charge  161.99940, renormalised to  168.00000

     negative rho (up, down):  4.970E-04 0.000E+00
     Starting wfcs are  108 randomized atomic wfcs

     total cpu time spent up to now is       14.9 secs

     Self-consistent Calculation

     iteration #  1     ecut=    80.00 Ry     beta= 0.50
     Davidson diagonalization with overlap
     ethr =  1.00E-02,  avg # of iterations =  3.0

     negative rho (up, down):  3.330E-05 0.000E+00

     total cpu time spent up to now is       27.9 secs

     total energy              =   -2868.74575288 Ry
     Harris-Foulkes estimate   =   -2886.01538495 Ry
     estimated scf accuracy    <      24.06721585 Ry

     iteration #  2     ecut=    80.00 Ry     beta= 0.50
     Davidson diagonalization with overlap
     ethr =  1.00E-02,  avg # of iterations =  3.0

     negative rho (up, down):  1.372E-04 0.000E+00

     total cpu time spent up to now is       42.8 secs

     total energy              =   -2877.86135801 Ry
     Harris-Foulkes estimate   =   -2883.26262631 Ry
     estimated scf accuracy    <      11.18052874 Ry

     iteration #  3     ecut=    80.00 Ry     beta= 0.50
     Davidson diagonalization with overlap
     ethr =  6.66E-03,  avg # of iterations =  3.4

     negative rho (up, down):  3.023E-04 0.000E+00

     total cpu time spent up to now is       55.7 secs

     total energy              =   -2879.86694893 Ry
     Harris-Foulkes estimate   =   -2880.54607007 Ry
     estimated scf accuracy    <       1.91152923 Ry

     iteration #  4     ecut=    80.00 Ry     beta= 0.50
     Davidson diagonalization with overlap
     ethr =  1.14E-03,  avg # of iterations =  2.8

     negative rho (up, down):  3.399E-04 0.000E+00

     total cpu time spent up to now is       67.4 secs

     total energy              =   -2880.07732915 Ry
     Harris-Foulkes estimate   =   -2880.13324479 Ry
     estimated scf accuracy    <       0.15635825 Ry

     iteration #  5     ecut=    80.00 Ry     beta= 0.50
     Davidson diagonalization with overlap
     ethr =  9.31E-05,  avg # of iterations =  3.0

     negative rho (up, down):  3.376E-04 0.000E+00

     total cpu time spent up to now is       79.6 secs

     total energy              =   -2880.07773341 Ry
     Harris-Foulkes estimate   =   -2880.09609006 Ry
     estimated scf accuracy    <       0.03343500 Ry

     iteration #  6     ecut=    80.00 Ry     beta= 0.50
     Davidson diagonalization with overlap
     ethr =  1.99E-05,  avg # of iterations =  2.8

     negative rho (up, down):  3.679E-04 0.000E+00

     total cpu time spent up to now is       93.2 secs

     total energy              =   -2880.08617143 Ry
     Harris-Foulkes estimate   =   -2880.08756699 Ry
     estimated scf accuracy    <       0.00463707 Ry

     iteration #  7     ecut=    80.00 Ry     beta= 0.50
     Davidson diagonalization with overlap
     ethr =  2.76E-06,  avg # of iterations =  3.0

     negative rho (up, down):  3.809E-04 0.000E+00

     total cpu time spent up to now is      105.2 secs

     total energy              =   -2880.08636539 Ry
     Harris-Foulkes estimate   =   -2880.08696384 Ry
     estimated scf accuracy    <       0.00146447 Ry

     iteration #  8     ecut=    80.00 Ry     beta= 0.50
     Davidson diagonalization with overlap
     ethr =  8.72E-07,  avg # of iterations =  2.4

     negative rho (up, down):  3.897E-04 0.000E+00

     total cpu time spent up to now is      117.8 secs

     total energy              =   -2880.08647972 Ry
     Harris-Foulkes estimate   =   -2880.08656388 Ry
     estimated scf accuracy    <       0.00015216 Ry

     iteration #  9     ecut=    80.00 Ry     beta= 0.50
     Davidson diagonalization with overlap
     ethr =  9.06E-08,  avg # of iterations =  4.0

     negative rho (up, down):  3.951E-04 0.000E+00

     total cpu time spent up to now is      132.9 secs

     total energy              =   -2880.08654090 Ry
     Harris-Foulkes estimate   =   -2880.08654390 Ry
     estimated scf accuracy    <       0.00000999 Ry

     iteration # 10     ecut=    80.00 Ry     beta= 0.50
     Davidson diagonalization with overlap
     ethr =  5.95E-09,  avg # of iterations =  3.0

     negative rho (up, down):  3.970E-04 0.000E+00

     total cpu time spent up to now is      145.5 secs

     total energy              =   -2880.08654300 Ry
     Harris-Foulkes estimate   =   -2880.08654319 Ry
     estimated scf accuracy    <       0.00000068 Ry

     iteration # 11     ecut=    80.00 Ry     beta= 0.50
     Davidson diagonalization with overlap
     ethr =  4.08E-10,  avg # of iterations =  4.0

     negative rho (up, down):  3.976E-04 0.000E+00

     total cpu time spent up to now is      160.0 secs

     total energy              =   -2880.08654321 Ry
     Harris-Foulkes estimate   =   -2880.08654328 Ry
     estimated scf accuracy    <       0.00000018 Ry

     iteration # 12     ecut=    80.00 Ry     beta= 0.50
     Davidson diagonalization with overlap
     ethr =  1.05E-10,  avg # of iterations =  3.4

     negative rho (up, down):  3.980E-04 0.000E+00

     total cpu time spent up to now is      172.4 secs

     total energy              =   -2880.08654325 Ry
     Harris-Foulkes estimate   =   -2880.08654326 Ry
     estimated scf accuracy    <       0.00000004 Ry

     iteration # 13     ecut=    80.00 Ry     beta= 0.50
     Davidson diagonalization with overlap
     ethr =  2.34E-11,  avg # of iterations =  3.4

     negative rho (up, down):  3.982E-04 0.000E+00

     total cpu time spent up to now is      185.0 secs

     total energy              =   -2880.08654326 Ry
     Harris-Foulkes estimate   =   -2880.08654326 Ry
     estimated scf accuracy    <       0.00000001 Ry

     iteration # 14     ecut=    80.00 Ry     beta= 0.50
     Davidson diagonalization with overlap
     ethr =  7.10E-12,  avg # of iterations =  3.0

     negative rho (up, down):  3.982E-04 0.000E+00

     total cpu time spent up to now is      197.6 secs

     total energy              =   -2880.08654326 Ry
     Harris-Foulkes estimate   =   -2880.08654326 Ry
     estimated scf accuracy    <          3.6E-10 Ry

     iteration # 15     ecut=    80.00 Ry     beta= 0.50
     Davidson diagonalization with overlap
     ethr =  2.15E-13,  avg # of iterations =  5.0

     negative rho (up, down):  3.982E-04 0.000E+00

     total cpu time spent up to now is      217.6 secs

     total energy              =   -2880.08654326 Ry
     Harris-Foulkes estimate   =   -2880.08654326 Ry
     estimated scf accuracy    <          5.2E-11 Ry

     iteration # 16     ecut=    80.00 Ry     beta= 0.50
     Davidson diagonalization with overlap
     ethr =  1.00E-13,  avg # of iterations =  2.0

     negative rho (up, down):  3.982E-04 0.000E+00

     total cpu time spent up to now is      229.0 secs

     total energy              =   -2880.08654326 Ry
     Harris-Foulkes estimate   =   -2880.08654326 Ry
     estimated scf accuracy    <          1.3E-11 Ry

     iteration # 17     ecut=    80.00 Ry     beta= 0.50
     Davidson diagonalization with overlap
     ethr =  1.00E-13,  avg # of iterations =  1.0

     negative rho (up, down):  3.983E-04 0.000E+00

     total cpu time spent up to now is      239.3 secs

     End of self-consistent calculation

          k = 0.0000 0.0000 0.0000 (200813 PWs)   bands (ev):

   -98.5140 -98.5140 -98.4086 -98.4086 -98.3688 -98.3688 -98.1613 -98.1254
   -98.0961 -97.8571 -97.8570 -97.8215 -97.8214 -97.7893 -97.7893 -97.7662
   -97.6917 -97.6487 -19.2098 -19.1502 -19.1484 -19.0741 -19.0489 -18.9945
   -18.9944 -18.9745 -18.9660 -18.9596 -18.8545 -18.8077 -18.7222 -18.6721
   -18.6693 -18.6120 -18.5875 -18.5254 -18.5056 -18.4615 -18.4110 -18.3913
   -18.3719 -18.3527 -18.3378 -18.3314 -18.3304 -18.2520 -18.2509 -18.2349
   -17.5763 -17.0810 -16.3227 -16.1465 -16.0827 -15.9713 -15.8338 -15.4564
   -15.2225 -10.6100 -10.3958 -10.0364  -9.6648  -9.4627  -8.3223  -8.0542
    -7.5118  -7.3495  -7.1122  -6.6007  -6.5231  -6.4079  -6.3242  -6.2379
    -6.1660  -6.0725  -5.9027  -5.6941  -5.0990  -4.9546  -4.9155  -4.8470
    -4.7567  -4.6123  -4.0894  -4.0318

     occupation numbers 
     1.0000   1.0000   1.0000   1.0000   1.0000   1.0000   1.0000   1.0000
     1.0000   1.0000   1.0000   1.0000   1.0000   1.0000   1.0000   1.0000
     1.0000   1.0000   1.0000   1.0000   1.0000   1.0000   1.0000   1.0000
     1.0000   1.0000   1.0000   1.0000   1.0000   1.0000   1.0000   1.0000
     1.0000   1.0000   1.0000   1.0000   1.0000   1.0000   1.0000   1.0000
     1.0000   1.0000   1.0000   1.0000   1.0000   1.0000   1.0000   1.0000
     1.0000   1.0000   1.0000   1.0000   1.0000   1.0000   1.0000   1.0000
     1.0000   1.0000   1.0000   1.0000   1.0000   1.0000   1.0000   1.0000
     1.0000   1.0000   1.0000   1.0000   1.0000   1.0000   1.0000   1.0000
     1.0000   1.0000   1.0000   1.0000   1.0000   1.0000   1.0000   1.0000
     1.0000   1.0000   1.0000   1.0000

          k = 0.0000 0.4060 0.0000 (200873 PWs)   bands (ev):

   -98.5140 -98.5140 -98.4086 -98.4086 -98.3688 -98.3688 -98.1613 -98.1254
   -98.0961 -97.8571 -97.8570 -97.8215 -97.8214 -97.7893 -97.7893 -97.7662
   -97.6917 -97.6487 -19.2089 -19.1502 -19.1482 -19.0741 -19.0503 -18.9947
   -18.9941 -18.9746 -18.9656 -18.9597 -18.8536 -18.8096 -18.7224 -18.6722
   -18.6694 -18.6127 -18.5858 -18.5251 -18.5046 -18.4616 -18.4108 -18.3911
   -18.3732 -18.3530 -18.3381 -18.3306 -18.3304 -18.2522 -18.2517 -18.2351
   -17.5426 -17.0596 -16.3158 -16.1902 -16.0847 -15.9735 -15.8530 -15.4566
   -15.2601 -10.6173 -10.3316 -10.0739  -9.6011  -9.4823  -8.4655  -7.9454
    -7.4391  -7.3573  -7.1132  -6.6255  -6.6000  -6.4159  -6.2981  -6.2106
    -6.1457  -6.0184  -5.7768  -5.6963  -5.2075  -4.9688  -4.9185  -4.8872
    -4.6698  -4.6015  -4.0822  -4.0615

     occupation numbers 
     1.0000   1.0000   1.0000   1.0000   1.0000   1.0000   1.0000   1.0000
     1.0000   1.0000   1.0000   1.0000   1.0000   1.0000   1.0000   1.0000
     1.0000   1.0000   1.0000   1.0000   1.0000   1.0000   1.0000   1.0000
     1.0000   1.0000   1.0000   1.0000   1.0000   1.0000   1.0000   1.0000
     1.0000   1.0000   1.0000   1.0000   1.0000   1.0000   1.0000   1.0000
     1.0000   1.0000   1.0000   1.0000   1.0000   1.0000   1.0000   1.0000
     1.0000   1.0000   1.0000   1.0000   1.0000   1.0000   1.0000   1.0000
     1.0000   1.0000   1.0000   1.0000   1.0000   1.0000   1.0000   1.0000
     1.0000   1.0000   1.0000   1.0000   1.0000   1.0000   1.0000   1.0000
     1.0000   1.0000   1.0000   1.0000   1.0000   1.0000   1.0000   1.0000
     1.0000   1.0000   1.0000   1.0000

          k = 0.0000 0.8120 0.0000 (200909 PWs)   bands (ev):

   -98.5140 -98.5140 -98.4086 -98.4086 -98.3688 -98.3688 -98.1613 -98.1254
   -98.0961 -97.8571 -97.8570 -97.8215 -97.8214 -97.7893 -97.7893 -97.7662
   -97.6917 -97.6487 -19.2067 -19.1502 -19.1476 -19.0741 -19.0539 -18.9951
   -18.9933 -18.9746 -18.9647 -18.9600 -18.8512 -18.8144 -18.7228 -18.6725
   -18.6695 -18.6140 -18.5823 -18.5243 -18.5023 -18.4619 -18.4102 -18.3908
   -18.3759 -18.3537 -18.3390 -18.3305 -18.3286 -18.2534 -18.2526 -18.2356
   -17.4478 -17.0092 -16.3054 -16.2984 -16.0873 -15.9798 -15.9067 -15.4569
   -15.3449 -10.6432 -10.1597 -10.1276  -9.5288  -9.4992  -8.6882  -7.7549
    -7.3918  -7.3500  -7.0918  -6.6542  -6.5732  -6.5168  -6.3287  -6.0858
    -6.0302  -5.8382  -5.7757  -5.6398  -5.3432  -5.0293  -4.9756  -4.8700
    -4.6020  -4.5566  -4.1925  -3.9889

     occupation numbers 
     1.0000   1.0000   1.0000   1.0000   1.0000   1.0000   1.0000   1.0000
     1.0000   1.0000   1.0000   1.0000   1.0000   1.0000   1.0000   1.0000
     1.0000   1.0000   1.0000   1.0000   1.0000   1.0000   1.0000   1.0000
     1.0000   1.0000   1.0000   1.0000   1.0000   1.0000   1.0000   1.0000
     1.0000   1.0000   1.0000   1.0000   1.0000   1.0000   1.0000   1.0000
     1.0000   1.0000   1.0000   1.0000   1.0000   1.0000   1.0000   1.0000
     1.0000   1.0000   1.0000   1.0000   1.0000   1.0000   1.0000   1.0000
     1.0000   1.0000   1.0000   1.0000   1.0000   1.0000   1.0000   1.0000
     1.0000   1.0000   1.0000   1.0000   1.0000   1.0000   1.0000   1.0000
     1.0000   1.0000   1.0000   1.0000   1.0000   1.0000   1.0000   1.0000
     1.0000   1.0000   1.0000   1.0000

          k = 0.0000 1.2179 0.0000 (200781 PWs)   bands (ev):

   -98.5140 -98.5140 -98.4086 -98.4086 -98.3688 -98.3688 -98.1613 -98.1254
   -98.0961 -97.8571 -97.8570 -97.8215 -97.8214 -97.7893 -97.7893 -97.7662
   -97.6917 -97.6487 -19.2044 -19.1502 -19.1470 -19.0741 -19.0575 -18.9954
   -18.9925 -18.9747 -18.9639 -18.9603 -18.8480 -18.8198 -18.7232 -18.6727
   -18.6696 -18.6148 -18.5794 -18.5236 -18.5003 -18.4622 -18.4095 -18.3906
   -18.3778 -18.3544 -18.3400 -18.3305 -18.3267 -18.2552 -18.2530 -18.2361
   -17.3165 -16.9797 -16.4189 -16.2795 -16.1011 -15.9875 -15.9729 -15.4571
   -15.4188 -10.6607 -10.2398  -9.8623  -9.5744  -9.4517  -8.9084  -7.6033
    -7.4200  -7.2721  -7.0805  -6.6469  -6.5619  -6.3219  -6.3082  -6.1011
    -6.0205  -5.8721  -5.6951  -5.6191  -5.3688  -5.0893  -5.0085  -4.8277
    -4.6013  -4.4962  -4.3127  -3.9153

     occupation numbers 
     1.0000   1.0000   1.0000   1.0000   1.0000   1.0000   1.0000   1.0000
     1.0000   1.0000   1.0000   1.0000   1.0000   1.0000   1.0000   1.0000
     1.0000   1.0000   1.0000   1.0000   1.0000   1.0000   1.0000   1.0000
     1.0000   1.0000   1.0000   1.0000   1.0000   1.0000   1.0000   1.0000
     1.0000   1.0000   1.0000   1.0000   1.0000   1.0000   1.0000   1.0000
     1.0000   1.0000   1.0000   1.0000   1.0000   1.0000   1.0000   1.0000
     1.0000   1.0000   1.0000   1.0000   1.0000   1.0000   1.0000   1.0000
     1.0000   1.0000   1.0000   1.0000   1.0000   1.0000   1.0000   1.0000
     1.0000   1.0000   1.0000   1.0000   1.0000   1.0000   1.0000   1.0000
     1.0000   1.0000   1.0000   1.0000   1.0000   1.0000   1.0000   1.0000
     1.0000   1.0000   1.0000   1.0000

          k = 0.0000-1.6239 0.0000 (200682 PWs)   bands (ev):

   -98.5140 -98.5140 -98.4086 -98.4086 -98.3688 -98.3688 -98.1613 -98.1254
   -98.0961 -97.8571 -97.8570 -97.8215 -97.8214 -97.7893 -97.7893 -97.7662
   -97.6917 -97.6487 -19.2034 -19.1503 -19.1467 -19.0741 -19.0591 -18.9955
   -18.9922 -18.9747 -18.9636 -18.9605 -18.8463 -18.8224 -18.7234 -18.6728
   -18.6696 -18.6150 -18.5783 -18.5233 -18.4996 -18.4624 -18.4092 -18.3905
   -18.3784 -18.3548 -18.3404 -18.3306 -18.3259 -18.2560 -18.2531 -18.2363
   -17.2327 -16.9971 -16.4556 -16.2712 -16.1200 -15.9997 -15.9912 -15.4572
   -15.4456 -10.6650 -10.2716  -9.7195  -9.5930  -9.4306  -9.0393  -7.6122
    -7.4276  -7.1255  -7.0827  -6.5875  -6.5652  -6.3394  -6.3068  -6.0762
    -5.9761  -5.9108  -5.6657  -5.6284  -5.4155  -5.0758  -5.0211  -4.8034
    -4.6131  -4.4663  -4.3692  -3.8858

     occupation numbers 
     1.0000   1.0000   1.0000   1.0000   1.0000   1.0000   1.0000   1.0000
     1.0000   1.0000   1.0000   1.0000   1.0000   1.0000   1.0000   1.0000
     1.0000   1.0000   1.0000   1.0000   1.0000   1.0000   1.0000   1.0000
     1.0000   1.0000   1.0000   1.0000   1.0000   1.0000   1.0000   1.0000
     1.0000   1.0000   1.0000   1.0000   1.0000   1.0000   1.0000   1.0000
     1.0000   1.0000   1.0000   1.0000   1.0000   1.0000   1.0000   1.0000
     1.0000   1.0000   1.0000   1.0000   1.0000   1.0000   1.0000   1.0000
     1.0000   1.0000   1.0000   1.0000   1.0000   1.0000   1.0000   1.0000
     1.0000   1.0000   1.0000   1.0000   1.0000   1.0000   1.0000   1.0000
     1.0000   1.0000   1.0000   1.0000   1.0000   1.0000   1.0000   1.0000
     1.0000   1.0000   1.0000   1.0000

     highest occupied level (ev):    -3.8858

!    total energy              =   -2880.08654326 Ry
     Harris-Foulkes estimate   =   -2880.08654326 Ry
     estimated scf accuracy    <          8.6E-13 Ry

     The total energy is the sum of the following terms:

     one-electron contribution =   -8935.67876273 Ry
     hartree contribution      =    4461.01445156 Ry
     xc contribution           =    -552.35176892 Ry
     ewald contribution        =    2146.92953682 Ry

     convergence has been achieved in  17 iterations

     negative rho (up, down):  3.983E-04 0.000E+00

     Forces acting on atoms (cartesian axes, Ry/au):

     atom    1 type  1   force =     0.00000017   -0.00002684   -0.00000593
     atom    2 type  1   force =    -0.00000130    0.00001942   -0.00002306
     atom    3 type  1   force =     0.00000141    0.00001940   -0.00002308
     atom    4 type  1   force =    -0.00000033   -0.00000665    0.00000912
     atom    5 type  1   force =     0.00000031   -0.00000662    0.00000907
     atom    6 type  1   force =     0.00000003    0.00000562    0.00000749
     atom    7 type  2   force =     0.00001225   -0.00000009   -0.00000566
     atom    8 type  2   force =    -0.00001237   -0.00000016   -0.00000562
     atom    9 type  2   force =     0.00000004    0.00002907   -0.00000983
     atom   10 type  2   force =    -0.00000004   -0.00001741    0.00001823
     atom   11 type  2   force =    -0.00000005    0.00001645    0.00001656
     atom   12 type  2   force =     0.00001072    0.00002369   -0.00002004
     atom   13 type  2   force =    -0.00001080    0.00002363   -0.00002008
     atom   14 type  2   force =     0.00001298   -0.00003973    0.00002641
     atom   15 type  2   force =    -0.00001303   -0.00003979    0.00002642
     The non-local contrib.  to forces
     atom    1 type  1   force =     0.00001756   -0.04944796   -0.23536783
     atom    2 type  1   force =     0.29909105   -0.17824411   -0.07326767
     atom    3 type  1   force =    -0.29908026   -0.17824492   -0.07331003
     atom    4 type  1   force =     0.13405720    0.17537063   -0.22828744
     atom    5 type  1   force =    -0.13402337    0.17536961   -0.22830667
     atom    6 type  1   force =    -0.00000375    0.09756537    0.05795497
     atom    7 type  2   force =     0.34841928   -0.08977444   -0.08463342
     atom    8 type  2   force =    -0.34840709   -0.08977591   -0.08468316
     atom    9 type  2   force =     0.00002066    0.11254231   -0.28328888
     atom   10 type  2   force =    -0.00002359   -0.09086669    0.32950669
     atom   11 type  2   force =     0.00000155    0.08741711   -0.03156241
     atom   12 type  2   force =     0.24039244    0.10363571   -0.17986172
     atom   13 type  2   force =    -0.24036710    0.10363562   -0.17989585
     atom   14 type  2   force =     0.23896094   -0.13867337    0.16634300
     atom   15 type  2   force =    -0.23898369   -0.13867281    0.16631043
     The ionic contribution  to forces
     atom    1 type  1   force =    -0.00496949  -11.98180842   69.51904613
     atom    2 type  1   force =   -62.03032780   -2.03790653  -38.80954387
     atom    3 type  1   force =    62.03578535   -2.03793599  -38.80088050
     atom    4 type  1   force =   -65.03690841    4.95545389   34.98501373
     atom    5 type  1   force =    65.03201507    4.95545950   34.99417312
     atom    6 type  1   force =     0.00469262    4.98794358  -65.64169146
     atom    7 type  2   force =   -34.98780000    1.46256027    2.92690738
     atom    8 type  2   force =    34.98737741    1.46258645    2.93191028
     atom    9 type  2   force =    -0.00214157    1.25776210   29.37839068
     atom   10 type  2   force =     0.00219705   -0.29808030  -30.47729824
     atom   11 type  2   force =     0.00021526   -4.06632701   -2.28788973
     atom   12 type  2   force =   -26.20239515   -3.64164867   25.83930075
     atom   13 type  2   force =    26.19875081   -3.64164604   25.84289137
     atom   14 type  2   force =   -25.35344915    4.31179796  -25.20187492
     atom   15 type  2   force =    25.35695798    4.31178923  -25.19845472
     The local contribution  to forces
     atom    1 type  1   force =     0.00495199   12.03126070  -69.28507105
     atom    2 type  1   force =    61.73367149    2.21454090   38.88264333
     atom    3 type  1   force =   -61.73914013    2.21457112   38.87402193
     atom    4 type  1   force =    64.90280890   -5.12910638  -34.75842199
     atom    5 type  1   force =   -64.89794919   -5.12911093  -34.76756212
     atom    6 type  1   force =    -0.00468895   -5.08560727   65.58319952
     atom    7 type  2   force =    34.67196187   -1.38287502   -2.84945748
     atom    8 type  2   force =   -34.67155035   -1.38289995   -2.85441523
     atom    9 type  2   force =     0.00212294   -1.35797425  -29.12246307
     atom   10 type  2   force =    -0.00217581    0.37880198   30.18028540
     atom   11 type  2   force =    -0.00021657    3.98589517    2.31372325
     atom   12 type  2   force =    25.98283278    3.54740952  -25.67474356
     atom   13 type  2   force =   -25.97921165    3.54740691  -25.67830299
     atom   14 type  2   force =    25.13554758   -4.18534582   25.04938384
     atom   15 type  2   force =   -25.13903550   -4.18533760   25.04599332
     The core correction contribution to forces
     atom    1 type  1   force =    -0.00000002   -0.00003172    0.00138764
     atom    2 type  1   force =    -0.00243687    0.00162949    0.00014573
     atom    3 type  1   force =     0.00243700    0.00162956    0.00014606
     atom    4 type  1   force =     0.00004169   -0.00172534    0.00170556
     atom    5 type  1   force =    -0.00004184   -0.00172535    0.00170551
     atom    6 type  1   force =    -0.00000005    0.00010489    0.00054455
     atom    7 type  2   force =    -0.03256880    0.01008927    0.00717778
     atom    8 type  2   force =     0.03256770    0.01008938    0.00718244
     atom    9 type  2   force =    -0.00000200   -0.01230090    0.02735134
     atom   10 type  2   force =     0.00000230    0.01012759   -0.03247574
     atom   11 type  2   force =    -0.00000034   -0.00696863    0.00574534
     atom   12 type  2   force =    -0.02081937   -0.00937293    0.01528442
     atom   13 type  2   force =     0.02081723   -0.00937292    0.01528736
     atom   14 type  2   force =    -0.02104646    0.01218166   -0.01382563
     atom   15 type  2   force =     0.02104827    0.01218155   -0.01382279
     The Hubbard contrib.    to forces
     atom    1 type  1   force =     0.00000000    0.00000000    0.00000000
     atom    2 type  1   force =     0.00000000    0.00000000    0.00000000
     atom    3 type  1   force =     0.00000000    0.00000000    0.00000000
     atom    4 type  1   force =     0.00000000    0.00000000    0.00000000
     atom    5 type  1   force =     0.00000000    0.00000000    0.00000000
     atom    6 type  1   force =     0.00000000    0.00000000    0.00000000
     atom    7 type  2   force =     0.00000000    0.00000000    0.00000000
     atom    8 type  2   force =     0.00000000    0.00000000    0.00000000
     atom    9 type  2   force =     0.00000000    0.00000000    0.00000000
     atom   10 type  2   force =     0.00000000    0.00000000    0.00000000
     atom   11 type  2   force =     0.00000000    0.00000000    0.00000000
     atom   12 type  2   force =     0.00000000    0.00000000    0.00000000
     atom   13 type  2   force =     0.00000000    0.00000000    0.00000000
     atom   14 type  2   force =     0.00000000    0.00000000    0.00000000
     atom   15 type  2   force =     0.00000000    0.00000000    0.00000000
     The SCF correction term to forces
     atom    1 type  1   force =     0.00000017    0.00000064   -0.00000104
     atom    2 type  1   force =     0.00000085   -0.00000025   -0.00000081
     atom    3 type  1   force =    -0.00000051   -0.00000029   -0.00000077
     atom    4 type  1   force =     0.00000033    0.00000063   -0.00000096
     atom    5 type  1   force =    -0.00000033    0.00000063   -0.00000100
     atom    6 type  1   force =     0.00000020   -0.00000088   -0.00000032
     atom    7 type  2   force =    -0.00000006   -0.00000008   -0.00000014
     atom    8 type  2   force =    -0.00000000   -0.00000005   -0.00000018
     atom    9 type  2   force =     0.00000006   -0.00000011   -0.00000012
     atom   10 type  2   force =     0.00000004    0.00000009   -0.00000009
     atom   11 type  2   force =     0.00000009   -0.00000012   -0.00000012
     atom   12 type  2   force =     0.00000005    0.00000013   -0.00000015
     atom   13 type  2   force =    -0.00000006    0.00000013   -0.00000020
     atom   14 type  2   force =     0.00000010   -0.00000008   -0.00000009
     atom   15 type  2   force =    -0.00000005   -0.00000008   -0.00000005

     Total force =     0.000112     Total SCF correction =     0.000003


     Computing stress (Cartesian axis) and pressure


     negative rho (up, down):  3.983E-04 0.000E+00
          total   stress  (Ry/bohr**3)                   (kbar)     P=   -0.13
  -0.00000122  -0.00000000  -0.00000000         -0.18     -0.00     -0.00
  -0.00000000  -0.00000005   0.00000004         -0.00     -0.01      0.01
  -0.00000000   0.00000004  -0.00000127         -0.00      0.01     -0.19

     kinetic stress (kbar)   1132.29     -0.00     -0.00
                               -0.00   1138.14     16.83
                               -0.00     16.83   1145.70

     local   stress (kbar)   1277.09     -0.12      0.26
                               -0.12 -58207.05   1770.42
                                0.26   1770.42  -5078.65

     nonloc. stress (kbar)    918.02      0.00     -0.00
                                0.00    922.01     -0.40
                               -0.00     -0.40    920.83

     hartree stress (kbar)   2330.22      0.05     -0.14
                                0.05  31581.71   -732.97
                               -0.14   -732.97   5566.96

     exc-cor stress (kbar)   1528.85      0.00      0.00
                                0.00   1529.12     -0.29
                                0.00     -0.29   1528.73

     corecor stress (kbar)  -2411.02      0.00      0.00
                                0.00  -2411.45     -0.45
                                0.00     -0.45  -2411.69

     ewald   stress (kbar)  -4775.63      0.07     -0.13
                                0.07  25447.50  -1053.13
                               -0.13  -1053.13  -1672.07

     hubbard stress (kbar)      0.00      0.00      0.00
                                0.00      0.00      0.00
                                0.00      0.00      0.00

     london  stress (kbar)      0.00      0.00      0.00
                                0.00      0.00      0.00
                                0.00      0.00      0.00

     DFT-D3  stress (kbar)      0.00      0.00      0.00
                                0.00      0.00      0.00
                                0.00      0.00      0.00

     XDM     stress (kbar)      0.00      0.00      0.00
                                0.00      0.00      0.00
                                0.00      0.00      0.00

     dft-nl  stress (kbar)      0.00      0.00      0.00
                                0.00      0.00      0.00
                                0.00      0.00      0.00

     TS-vdW  stress (kbar)      0.00      0.00      0.00
                                0.00      0.00      0.00
                                0.00      0.00      0.00



     BFGS Geometry Optimization

     number of scf cycles    =   1
     number of bfgs steps    =   0

     enthalpy new            =   -2880.0865432609 Ry

     new trust radius        =       0.0000495079 bohr
     new conv_thr            =            1.0E-11 Ry

     new unit-cell volume =  16622.47562 a.u.^3 (  2463.19672 Ang^3 )
     density =      0.76116 g/cm^3

CELL_PARAMETERS (angstrom)
  20.000000000   0.000000000   0.000000000
   0.000000000   6.157991804   0.000000000
   0.000000000   0.000000000  20.000000000

ATOMIC_POSITIONS (crystal)
Ga       0.524834642   0.096958782   0.647938903
Ga       0.432808274   0.844529074   0.443084583
Ga       0.616889801   0.844529320   0.443097599
Ga       0.440853558   0.505538517   0.594186170
Ga       0.608823276   0.505538926   0.594198177
Ga       0.524851492   0.284715328   0.408043220
Se       0.366776735   0.719103507   0.528221190
Se       0.682909262   0.719104620   0.528243686
Se       0.524833726   0.710729164   0.659393174
Se       0.524853308   0.671680654   0.382758848
Se       0.524843049   0.285822186   0.530106668
Se       0.415039219   0.226984872   0.670781459
Se       0.634626804   0.226985087   0.670797051
Se       0.416314988   0.156915086   0.380027095
Se       0.633391867   0.156914878   0.380042180



     Writing output data file NR.save/
     NEW-OLD atomic charge density approx. for the potential

     negative rho (up, down):  3.983E-04 0.000E+00
     extrapolated charge  167.99978, renormalised to  168.00000

     total cpu time spent up to now is      278.9 secs

     Self-consistent Calculation

     iteration #  1     ecut=    80.00 Ry     beta= 0.50
     Davidson diagonalization with overlap
     ethr =  1.00E-06,  avg # of iterations =  2.0

     Threshold (ethr) on eigenvalues was too large:
     Diagonalizing with lowered threshold

     Davidson diagonalization with overlap
     ethr =  9.71E-12,  avg # of iterations =  4.0

     negative rho (up, down):  3.983E-04 0.000E+00

     total cpu time spent up to now is      303.1 secs

     total energy              =   -2880.08654323 Ry
     Harris-Foulkes estimate   =   -2880.09751122 Ry
     estimated scf accuracy    <       0.00000004 Ry

     iteration #  2     ecut=    80.00 Ry     beta= 0.50
     Davidson diagonalization with overlap
     ethr =  2.16E-11,  avg # of iterations =  3.6

     negative rho (up, down):  3.983E-04 0.000E+00

     total cpu time spent up to now is      317.9 secs

     total energy              =   -2880.08654326 Ry
     Harris-Foulkes estimate   =   -2880.08654330 Ry
     estimated scf accuracy    <       0.00000016 Ry

     iteration #  3     ecut=    80.00 Ry     beta= 0.50
     Davidson diagonalization with overlap
     ethr =  2.16E-11,  avg # of iterations =  3.0

     negative rho (up, down):  3.983E-04 0.000E+00

     total cpu time spent up to now is      329.8 secs

     total energy              =   -2880.08654327 Ry
     Harris-Foulkes estimate   =   -2880.08654327 Ry
     estimated scf accuracy    <       0.00000001 Ry

     iteration #  4     ecut=    80.00 Ry     beta= 0.50
     Davidson diagonalization with overlap
     ethr =  8.76E-12,  avg # of iterations =  1.0

     negative rho (up, down):  3.983E-04 0.000E+00

     total cpu time spent up to now is      340.2 secs

     total energy              =   -2880.08654327 Ry
     Harris-Foulkes estimate   =   -2880.08654327 Ry
     estimated scf accuracy    <          6.9E-09 Ry

     iteration #  5     ecut=    80.00 Ry     beta= 0.50
     Davidson diagonalization with overlap
     ethr =  4.09E-12,  avg # of iterations =  2.2

     negative rho (up, down):  3.983E-04 0.000E+00

     total cpu time spent up to now is      351.8 secs

     total energy              =   -2880.08654327 Ry
     Harris-Foulkes estimate   =   -2880.08654327 Ry
     estimated scf accuracy    <          6.3E-10 Ry

     iteration #  6     ecut=    80.00 Ry     beta= 0.50
     Davidson diagonalization with overlap
     ethr =  3.74E-13,  avg # of iterations =  2.0

     negative rho (up, down):  3.983E-04 0.000E+00

     total cpu time spent up to now is      362.5 secs

     total energy              =   -2880.08654327 Ry
     Harris-Foulkes estimate   =   -2880.08654327 Ry
     estimated scf accuracy    <          4.4E-10 Ry

     iteration #  7     ecut=    80.00 Ry     beta= 0.50
     Davidson diagonalization with overlap
     ethr =  2.63E-13,  avg # of iterations =  2.4

     negative rho (up, down):  3.982E-04 0.000E+00

     total cpu time spent up to now is      373.9 secs

     End of self-consistent calculation

          k = 0.0000 0.0000 0.0000 (200813 PWs)   bands (ev):

   -98.5140 -98.5140 -98.4086 -98.4086 -98.3688 -98.3688 -98.1613 -98.1255
   -98.0961 -97.8571 -97.8570 -97.8214 -97.8214 -97.7893 -97.7893 -97.7662
   -97.6917 -97.6487 -19.2098 -19.1502 -19.1484 -19.0741 -19.0489 -18.9945
   -18.9944 -18.9745 -18.9660 -18.9596 -18.8545 -18.8077 -18.7222 -18.6721
   -18.6693 -18.6119 -18.5875 -18.5254 -18.5056 -18.4614 -18.4110 -18.3913
   -18.3719 -18.3527 -18.3378 -18.3314 -18.3304 -18.2520 -18.2509 -18.2349
   -17.5764 -17.0810 -16.3227 -16.1465 -16.0827 -15.9714 -15.8338 -15.4564
   -15.2225 -10.6101 -10.3959 -10.0364  -9.6648  -9.4627  -8.3223  -8.0542
    -7.5118  -7.3495  -7.1122  -6.6007  -6.5231  -6.4079  -6.3242  -6.2379
    -6.1660  -6.0725  -5.9027  -5.6940  -5.0990  -4.9545  -4.9155  -4.8470
    -4.7567  -4.6123  -4.0894  -4.0318

     occupation numbers 
     1.0000   1.0000   1.0000   1.0000   1.0000   1.0000   1.0000   1.0000
     1.0000   1.0000   1.0000   1.0000   1.0000   1.0000   1.0000   1.0000
     1.0000   1.0000   1.0000   1.0000   1.0000   1.0000   1.0000   1.0000
     1.0000   1.0000   1.0000   1.0000   1.0000   1.0000   1.0000   1.0000
     1.0000   1.0000   1.0000   1.0000   1.0000   1.0000   1.0000   1.0000
     1.0000   1.0000   1.0000   1.0000   1.0000   1.0000   1.0000   1.0000
     1.0000   1.0000   1.0000   1.0000   1.0000   1.0000   1.0000   1.0000
     1.0000   1.0000   1.0000   1.0000   1.0000   1.0000   1.0000   1.0000
     1.0000   1.0000   1.0000   1.0000   1.0000   1.0000   1.0000   1.0000
     1.0000   1.0000   1.0000   1.0000   1.0000   1.0000   1.0000   1.0000
     1.0000   1.0000   1.0000   1.0000

          k = 0.0000 0.4060 0.0000 (200873 PWs)   bands (ev):

   -98.5140 -98.5140 -98.4086 -98.4086 -98.3688 -98.3688 -98.1613 -98.1255
   -98.0961 -97.8571 -97.8570 -97.8214 -97.8214 -97.7893 -97.7893 -97.7662
   -97.6917 -97.6487 -19.2089 -19.1502 -19.1482 -19.0741 -19.0503 -18.9947
   -18.9941 -18.9746 -18.9656 -18.9597 -18.8537 -18.8096 -18.7224 -18.6722
   -18.6694 -18.6127 -18.5858 -18.5251 -18.5045 -18.4616 -18.4108 -18.3911
   -18.3732 -18.3530 -18.3381 -18.3306 -18.3304 -18.2521 -18.2517 -18.2351
   -17.5426 -17.0596 -16.3158 -16.1902 -16.0847 -15.9736 -15.8531 -15.4566
   -15.2601 -10.6173 -10.3316 -10.0739  -9.6011  -9.4822  -8.4655  -7.9454
    -7.4391  -7.3574  -7.1133  -6.6255  -6.6000  -6.4159  -6.2981  -6.2106
    -6.1457  -6.0184  -5.7768  -5.6963  -5.2075  -4.9687  -4.9185  -4.8871
    -4.6699  -4.6015  -4.0822  -4.0615

     occupation numbers 
     1.0000   1.0000   1.0000   1.0000   1.0000   1.0000   1.0000   1.0000
     1.0000   1.0000   1.0000   1.0000   1.0000   1.0000   1.0000   1.0000
     1.0000   1.0000   1.0000   1.0000   1.0000   1.0000   1.0000   1.0000
     1.0000   1.0000   1.0000   1.0000   1.0000   1.0000   1.0000   1.0000
     1.0000   1.0000   1.0000   1.0000   1.0000   1.0000   1.0000   1.0000
     1.0000   1.0000   1.0000   1.0000   1.0000   1.0000   1.0000   1.0000
     1.0000   1.0000   1.0000   1.0000   1.0000   1.0000   1.0000   1.0000
     1.0000   1.0000   1.0000   1.0000   1.0000   1.0000   1.0000   1.0000
     1.0000   1.0000   1.0000   1.0000   1.0000   1.0000   1.0000   1.0000
     1.0000   1.0000   1.0000   1.0000   1.0000   1.0000   1.0000   1.0000
     1.0000   1.0000   1.0000   1.0000

          k = 0.0000 0.8120 0.0000 (200909 PWs)   bands (ev):

   -98.5140 -98.5140 -98.4086 -98.4086 -98.3688 -98.3688 -98.1613 -98.1255
   -98.0961 -97.8571 -97.8570 -97.8214 -97.8214 -97.7893 -97.7893 -97.7662
   -97.6917 -97.6487 -19.2066 -19.1502 -19.1476 -19.0741 -19.0539 -18.9950
   -18.9933 -18.9746 -18.9647 -18.9600 -18.8512 -18.8144 -18.7228 -18.6725
   -18.6695 -18.6140 -18.5823 -18.5243 -18.5022 -18.4619 -18.4101 -18.3908
   -18.3759 -18.3537 -18.3390 -18.3304 -18.3286 -18.2534 -18.2526 -18.2356
   -17.4478 -17.0092 -16.3054 -16.2984 -16.0873 -15.9798 -15.9067 -15.4569
   -15.3449 -10.6432 -10.1597 -10.1277  -9.5288  -9.4992  -8.6882  -7.7549
    -7.3918  -7.3500  -7.0918  -6.6542  -6.5732  -6.5169  -6.3287  -6.0858
    -6.0302  -5.8382  -5.7757  -5.6398  -5.3432  -5.0293  -4.9756  -4.8699
    -4.6020  -4.5567  -4.1925  -3.9889

     occupation numbers 
     1.0000   1.0000   1.0000   1.0000   1.0000   1.0000   1.0000   1.0000
     1.0000   1.0000   1.0000   1.0000   1.0000   1.0000   1.0000   1.0000
     1.0000   1.0000   1.0000   1.0000   1.0000   1.0000   1.0000   1.0000
     1.0000   1.0000   1.0000   1.0000   1.0000   1.0000   1.0000   1.0000
     1.0000   1.0000   1.0000   1.0000   1.0000   1.0000   1.0000   1.0000
     1.0000   1.0000   1.0000   1.0000   1.0000   1.0000   1.0000   1.0000
     1.0000   1.0000   1.0000   1.0000   1.0000   1.0000   1.0000   1.0000
     1.0000   1.0000   1.0000   1.0000   1.0000   1.0000   1.0000   1.0000
     1.0000   1.0000   1.0000   1.0000   1.0000   1.0000   1.0000   1.0000
     1.0000   1.0000   1.0000   1.0000   1.0000   1.0000   1.0000   1.0000
     1.0000   1.0000   1.0000   1.0000

          k = 0.0000 1.2179 0.0000 (200781 PWs)   bands (ev):

   -98.5140 -98.5140 -98.4086 -98.4086 -98.3688 -98.3688 -98.1613 -98.1254
   -98.0961 -97.8571 -97.8570 -97.8214 -97.8214 -97.7893 -97.7893 -97.7662
   -97.6917 -97.6487 -19.2043 -19.1502 -19.1470 -19.0741 -19.0575 -18.9954
   -18.9925 -18.9747 -18.9639 -18.9603 -18.8480 -18.8199 -18.7232 -18.6727
   -18.6696 -18.6147 -18.5794 -18.5236 -18.5003 -18.4622 -18.4095 -18.3905
   -18.3778 -18.3544 -18.3400 -18.3305 -18.3267 -18.2552 -18.2530 -18.2361
   -17.3165 -16.9797 -16.4189 -16.2795 -16.1011 -15.9875 -15.9729 -15.4572
   -15.4188 -10.6607 -10.2398  -9.8623  -9.5744  -9.4517  -8.9084  -7.6033
    -7.4200  -7.2722  -7.0805  -6.6469  -6.5619  -6.3220  -6.3082  -6.1011
    -6.0205  -5.8721  -5.6951  -5.6191  -5.3688  -5.0893  -5.0085  -4.8277
    -4.6013  -4.4962  -4.3127  -3.9153

     occupation numbers 
     1.0000   1.0000   1.0000   1.0000   1.0000   1.0000   1.0000   1.0000
     1.0000   1.0000   1.0000   1.0000   1.0000   1.0000   1.0000   1.0000
     1.0000   1.0000   1.0000   1.0000   1.0000   1.0000   1.0000   1.0000
     1.0000   1.0000   1.0000   1.0000   1.0000   1.0000   1.0000   1.0000
     1.0000   1.0000   1.0000   1.0000   1.0000   1.0000   1.0000   1.0000
     1.0000   1.0000   1.0000   1.0000   1.0000   1.0000   1.0000   1.0000
     1.0000   1.0000   1.0000   1.0000   1.0000   1.0000   1.0000   1.0000
     1.0000   1.0000   1.0000   1.0000   1.0000   1.0000   1.0000   1.0000
     1.0000   1.0000   1.0000   1.0000   1.0000   1.0000   1.0000   1.0000
     1.0000   1.0000   1.0000   1.0000   1.0000   1.0000   1.0000   1.0000
     1.0000   1.0000   1.0000   1.0000

          k = 0.0000-1.6239 0.0000 (200682 PWs)   bands (ev):

   -98.5140 -98.5140 -98.4086 -98.4086 -98.3688 -98.3688 -98.1613 -98.1254
   -98.0961 -97.8571 -97.8570 -97.8214 -97.8214 -97.7893 -97.7893 -97.7662
   -97.6917 -97.6487 -19.2034 -19.1503 -19.1468 -19.0741 -19.0591 -18.9955
   -18.9922 -18.9747 -18.9636 -18.9605 -18.8463 -18.8225 -18.7234 -18.6728
   -18.6697 -18.6150 -18.5783 -18.5233 -18.4995 -18.4624 -18.4092 -18.3905
   -18.3784 -18.3547 -18.3404 -18.3305 -18.3259 -18.2559 -18.2531 -18.2363
   -17.2327 -16.9971 -16.4557 -16.2712 -16.1200 -15.9996 -15.9913 -15.4572
   -15.4456 -10.6650 -10.2716  -9.7195  -9.5930  -9.4306  -9.0393  -7.6122
    -7.4276  -7.1255  -7.0827  -6.5875  -6.5652  -6.3394  -6.3068  -6.0762
    -5.9761  -5.9108  -5.6656  -5.6284  -5.4155  -5.0757  -5.0211  -4.8034
    -4.6131  -4.4664  -4.3692  -3.8858

     occupation numbers 
     1.0000   1.0000   1.0000   1.0000   1.0000   1.0000   1.0000   1.0000
     1.0000   1.0000   1.0000   1.0000   1.0000   1.0000   1.0000   1.0000
     1.0000   1.0000   1.0000   1.0000   1.0000   1.0000   1.0000   1.0000
     1.0000   1.0000   1.0000   1.0000   1.0000   1.0000   1.0000   1.0000
     1.0000   1.0000   1.0000   1.0000   1.0000   1.0000   1.0000   1.0000
     1.0000   1.0000   1.0000   1.0000   1.0000   1.0000   1.0000   1.0000
     1.0000   1.0000   1.0000   1.0000   1.0000   1.0000   1.0000   1.0000
     1.0000   1.0000   1.0000   1.0000   1.0000   1.0000   1.0000   1.0000
     1.0000   1.0000   1.0000   1.0000   1.0000   1.0000   1.0000   1.0000
     1.0000   1.0000   1.0000   1.0000   1.0000   1.0000   1.0000   1.0000
     1.0000   1.0000   1.0000   1.0000

     highest occupied level (ev):    -3.8858

!    total energy              =   -2880.08654327 Ry
     Harris-Foulkes estimate   =   -2880.08654327 Ry
     estimated scf accuracy    <          4.7E-12 Ry

     The total energy is the sum of the following terms:

     one-electron contribution =   -8935.69423290 Ry
     hartree contribution      =    4461.02219497 Ry
     xc contribution           =    -552.35184084 Ry
     ewald contribution        =    2146.93733551 Ry

     convergence has been achieved in   7 iterations

     negative rho (up, down):  3.982E-04 0.000E+00

     Forces acting on atoms (cartesian axes, Ry/au):

     atom    1 type  1   force =     0.00000001   -0.00001802   -0.00000838
     atom    2 type  1   force =     0.00000018    0.00000489   -0.00000939
     atom    3 type  1   force =    -0.00000018    0.00000489   -0.00000944
     atom    4 type  1   force =     0.00000193   -0.00000014    0.00000341
     atom    5 type  1   force =    -0.00000195   -0.00000011    0.00000338
     atom    6 type  1   force =    -0.00000007    0.00000357    0.00001263
     atom    7 type  2   force =     0.00001357    0.00000070   -0.00000749
     atom    8 type  2   force =    -0.00001359    0.00000065   -0.00000752
     atom    9 type  2   force =     0.00000004    0.00002122   -0.00000812
     atom   10 type  2   force =     0.00000003   -0.00001616    0.00001426
     atom   11 type  2   force =    -0.00000004    0.00001425    0.00001188
     atom   12 type  2   force =     0.00000804    0.00001815   -0.00001431
     atom   13 type  2   force =    -0.00000800    0.00001809   -0.00001435
     atom   14 type  2   force =     0.00000934   -0.00002596    0.00001673
     atom   15 type  2   force =    -0.00000929   -0.00002601    0.00001672
     The non-local contrib.  to forces
     atom    1 type  1   force =     0.00001743   -0.04942702   -0.23535208
     atom    2 type  1   force =     0.29909380   -0.17826619   -0.07326348
     atom    3 type  1   force =    -0.29908284   -0.17826694   -0.07330574
     atom    4 type  1   force =     0.13406969    0.17539253   -0.22828791
     atom    5 type  1   force =    -0.13403562    0.17539148   -0.22830699
     atom    6 type  1   force =    -0.00000383    0.09754603    0.05793307
     atom    7 type  2   force =     0.34842180   -0.08977457   -0.08463585
     atom    8 type  2   force =    -0.34840961   -0.08977604   -0.08468557
     atom    9 type  2   force =     0.00002067    0.11254260   -0.28328498
     atom   10 type  2   force =    -0.00002356   -0.09086995    0.32950367
     atom   11 type  2   force =     0.00000156    0.08741639   -0.03156736
     atom   12 type  2   force =     0.24039101    0.10363298   -0.17985841
     atom   13 type  2   force =    -0.24036564    0.10363289   -0.17989255
     atom   14 type  2   force =     0.23895917   -0.13866606    0.16633513
     atom   15 type  2   force =    -0.23898188   -0.13866550    0.16630256
     The ionic contribution  to forces
     atom    1 type  1   force =    -0.00496928  -11.98149201   69.51909584
     atom    2 type  1   force =   -62.03050638   -2.03844442  -38.80949569
     atom    3 type  1   force =    62.03596447   -2.03847408  -38.80083341
     atom    4 type  1   force =   -65.03702759    4.95566437   34.98503877
     atom    5 type  1   force =    65.03213308    4.95566967   34.99419757
     atom    6 type  1   force =     0.00469253    4.98814242  -65.64166968
     atom    7 type  2   force =   -34.98774163    1.46254139    2.92685276
     atom    8 type  2   force =    34.98731947    1.46256770    2.93185570
     atom    9 type  2   force =    -0.00214197    1.25743596   29.37833324
     atom   10 type  2   force =     0.00219694   -0.29807211  -30.47721703
     atom   11 type  2   force =     0.00021449   -4.06630332   -2.28793614
     atom   12 type  2   force =   -26.20246157   -3.64175870   25.83946270
     atom   13 type  2   force =    26.19881867   -3.64175501   25.84305373
     atom   14 type  2   force =   -25.35355130    4.31214336  -25.20207904
     atom   15 type  2   force =    25.35706006    4.31213479  -25.19865932
     The local contribution  to forces
     atom    1 type  1   force =     0.00495189   12.03093266  -69.28513845
     atom    2 type  1   force =    61.73384608    2.21508680   38.88260242
     atom    3 type  1   force =   -61.73931528    2.21511718   38.87398203
     atom    4 type  1   force =    64.90291375   -5.12933191  -34.75845250
     atom    5 type  1   force =   -64.89805318   -5.12933616  -34.76759220
     atom    6 type  1   force =    -0.00468873   -5.08578893   65.58320281
     atom    7 type  2   force =    34.67190228   -1.38285529   -2.84940308
     atom    8 type  2   force =   -34.67149123   -1.38288030   -2.85436099
     atom    9 type  2   force =     0.00212334   -1.35765669  -29.12240709
     atom   10 type  2   force =    -0.00217565    0.37879770   30.18020237
     atom   11 type  2   force =    -0.00021574    3.98586901    2.31376825
     atom   12 type  2   force =    25.98289730    3.54751587  -25.67490249
     atom   13 type  2   force =   -25.97927759    3.54751222  -25.67846236
     atom   14 type  2   force =    25.13564717   -4.18568309   25.04958450
     atom   15 type  2   force =   -25.13913500   -4.18567503   25.04619450
     The core correction contribution to forces
     atom    1 type  1   force =    -0.00000002   -0.00003213    0.00138756
     atom    2 type  1   force =    -0.00243688    0.00163005    0.00014539
     atom    3 type  1   force =     0.00243701    0.00163012    0.00014572
     atom    4 type  1   force =     0.00004160   -0.00172569    0.00170567
     atom    5 type  1   force =    -0.00004175   -0.00172570    0.00170562
     atom    6 type  1   force =    -0.00000005    0.00010507    0.00054464
     atom    7 type  2   force =    -0.03256934    0.01008929    0.00717818
     atom    8 type  2   force =     0.03256824    0.01008940    0.00718284
     atom    9 type  2   force =    -0.00000200   -0.01230041    0.02735097
     atom   10 type  2   force =     0.00000230    0.01012790   -0.03247552
     atom   11 type  2   force =    -0.00000034   -0.00696855    0.00574604
     atom   12 type  2   force =    -0.02081916   -0.00937234    0.01528375
     atom   13 type  2   force =     0.02081702   -0.00937233    0.01528669
     atom   14 type  2   force =    -0.02104612    0.01218009   -0.01382425
     atom   15 type  2   force =     0.02104794    0.01217998   -0.01382139
     The Hubbard contrib.    to forces
     atom    1 type  1   force =     0.00000000    0.00000000    0.00000000
     atom    2 type  1   force =     0.00000000    0.00000000    0.00000000
     atom    3 type  1   force =     0.00000000    0.00000000    0.00000000
     atom    4 type  1   force =     0.00000000    0.00000000    0.00000000
     atom    5 type  1   force =     0.00000000    0.00000000    0.00000000
     atom    6 type  1   force =     0.00000000    0.00000000    0.00000000
     atom    7 type  2   force =     0.00000000    0.00000000    0.00000000
     atom    8 type  2   force =     0.00000000    0.00000000    0.00000000
     atom    9 type  2   force =     0.00000000    0.00000000    0.00000000
     atom   10 type  2   force =     0.00000000    0.00000000    0.00000000
     atom   11 type  2   force =     0.00000000    0.00000000    0.00000000
     atom   12 type  2   force =     0.00000000    0.00000000    0.00000000
     atom   13 type  2   force =     0.00000000    0.00000000    0.00000000
     atom   14 type  2   force =     0.00000000    0.00000000    0.00000000
     atom   15 type  2   force =     0.00000000    0.00000000    0.00000000
     The SCF correction term to forces
     atom    1 type  1   force =    -0.00000001    0.00000043   -0.00000136
     atom    2 type  1   force =     0.00000356   -0.00000141    0.00000186
     atom    3 type  1   force =    -0.00000354   -0.00000145    0.00000186
     atom    4 type  1   force =     0.00000448    0.00000052   -0.00000073
     atom    5 type  1   force =    -0.00000447    0.00000054   -0.00000074
     atom    6 type  1   force =     0.00000001   -0.00000106    0.00000169
     atom    7 type  2   force =     0.00000047   -0.00000017    0.00000040
     atom    8 type  2   force =    -0.00000046   -0.00000017    0.00000040
     atom    9 type  2   force =    -0.00000000   -0.00000029   -0.00000036
     atom   10 type  2   force =    -0.00000000    0.00000024    0.00000068
     atom   11 type  2   force =    -0.00000000    0.00000067    0.00000100
     atom   12 type  2   force =     0.00000047    0.00000028    0.00000004
     atom   13 type  2   force =    -0.00000047    0.00000027    0.00000005
     atom   14 type  2   force =     0.00000042   -0.00000031    0.00000028
     atom   15 type  2   force =    -0.00000041   -0.00000030    0.00000027

     Total force =     0.000077     Total SCF correction =     0.000009
     SCF correction compared to forces is large: reduce conv_thr to get better values


     Computing stress (Cartesian axis) and pressure


     negative rho (up, down):  3.982E-04 0.000E+00
          total   stress  (Ry/bohr**3)                   (kbar)     P=   -0.13
  -0.00000123  -0.00000000  -0.00000000         -0.18     -0.00     -0.00
  -0.00000000  -0.00000005   0.00000003         -0.00     -0.01      0.00
  -0.00000000   0.00000003  -0.00000128         -0.00      0.00     -0.19

     kinetic stress (kbar)   1132.29     -0.00     -0.00
                               -0.00   1138.15     16.83
                               -0.00     16.83   1145.71

     local   stress (kbar)   1277.12     -0.12      0.26
                               -0.12 -58207.32   1770.43
                                0.26   1770.43  -5078.64

     nonloc. stress (kbar)    918.02      0.00     -0.00
                                0.00    922.02     -0.40
                               -0.00     -0.40    920.83

     hartree stress (kbar)   2330.22      0.05     -0.14
                                0.05  31581.84   -732.97
                               -0.14   -732.97   5566.96

     exc-cor stress (kbar)   1528.85      0.00      0.00
                                0.00   1529.12     -0.29
                                0.00     -0.29   1528.73

     corecor stress (kbar)  -2411.02      0.00      0.00
                                0.00  -2411.46     -0.45
                                0.00     -0.45  -2411.69

     ewald   stress (kbar)  -4775.66      0.07     -0.13
                                0.07  25447.64  -1053.14
                               -0.13  -1053.14  -1672.09

     hubbard stress (kbar)      0.00      0.00      0.00
                                0.00      0.00      0.00
                                0.00      0.00      0.00

     london  stress (kbar)      0.00      0.00      0.00
                                0.00      0.00      0.00
                                0.00      0.00      0.00

     DFT-D3  stress (kbar)      0.00      0.00      0.00
                                0.00      0.00      0.00
                                0.00      0.00      0.00

     XDM     stress (kbar)      0.00      0.00      0.00
                                0.00      0.00      0.00
                                0.00      0.00      0.00

     dft-nl  stress (kbar)      0.00      0.00      0.00
                                0.00      0.00      0.00
                                0.00      0.00      0.00

     TS-vdW  stress (kbar)      0.00      0.00      0.00
                                0.00      0.00      0.00
                                0.00      0.00      0.00



     number of scf cycles    =   2
     number of bfgs steps    =   1

     enthalpy old            =   -2880.0865432608 Ry
     enthalpy new            =   -2880.0865432713 Ry

     CASE: enthalpy_new < enthalpy_old

     small trust_radius: resetting bfgs history

     new trust radius        =       0.0000322824 bohr
     new conv_thr            =            1.0E-13 Ry

     new unit-cell volume =  16622.45525 a.u.^3 (  2463.19370 Ang^3 )
     density =      0.76116 g/cm^3

CELL_PARAMETERS (angstrom)
  20.000000000   0.000000000   0.000000000
   0.000000000   6.157984259   0.000000000
   0.000000000   0.000000000  20.000000000

ATOMIC_POSITIONS (crystal)
Ga       0.524834643   0.096957233   0.647938681
Ga       0.432808278   0.844529494   0.443084334
Ga       0.616889797   0.844529740   0.443097350
Ga       0.440853609   0.505538505   0.594186260
Ga       0.608823225   0.505538917   0.594198266
Ga       0.524851490   0.284715634   0.408043554
Se       0.366777094   0.719103567   0.528220992
Se       0.682908902   0.719104675   0.528243487
Se       0.524833727   0.710730988   0.659392959
Se       0.524853309   0.671679265   0.382759225
Se       0.524843048   0.285823411   0.530106983
Se       0.415039431   0.226986431   0.670781080
Se       0.634626592   0.226986642   0.670796671
Se       0.416315235   0.156912855   0.380027538
Se       0.633391621   0.156912643   0.380042622



     Writing output data file NR.save/
     NEW-OLD atomic charge density approx. for the potential

     negative rho (up, down):  3.982E-04 0.000E+00
     extrapolated charge  167.99980, renormalised to  168.00000

     total cpu time spent up to now is      411.9 secs

     Self-consistent Calculation

     iteration #  1     ecut=    80.00 Ry     beta= 0.50
     Davidson diagonalization with overlap
     ethr =  1.00E-06,  avg # of iterations =  2.0

     Threshold (ethr) on eigenvalues was too large:
     Diagonalizing with lowered threshold

     Davidson diagonalization with overlap
     ethr =  9.68E-12,  avg # of iterations =  4.0

     negative rho (up, down):  3.983E-04 0.000E+00

     total cpu time spent up to now is      435.2 secs

     total energy              =   -2880.08654324 Ry
     Harris-Foulkes estimate   =   -2880.09663995 Ry
     estimated scf accuracy    <       0.00000003 Ry

     iteration #  2     ecut=    80.00 Ry     beta= 0.50
     Davidson diagonalization with overlap
     ethr =  1.96E-11,  avg # of iterations =  3.6

     negative rho (up, down):  3.983E-04 0.000E+00

     total cpu time spent up to now is      450.0 secs

     total energy              =   -2880.08654327 Ry
     Harris-Foulkes estimate   =   -2880.08654331 Ry
     estimated scf accuracy    <       0.00000014 Ry

     iteration #  3     ecut=    80.00 Ry     beta= 0.50
     Davidson diagonalization with overlap
     ethr =  1.96E-11,  avg # of iterations =  3.0

     negative rho (up, down):  3.982E-04 0.000E+00

     total cpu time spent up to now is      461.9 secs

     total energy              =   -2880.08654328 Ry
     Harris-Foulkes estimate   =   -2880.08654328 Ry
     estimated scf accuracy    <       0.00000001 Ry

     iteration #  4     ecut=    80.00 Ry     beta= 0.50
     Davidson diagonalization with overlap
     ethr =  7.32E-12,  avg # of iterations =  1.0

     negative rho (up, down):  3.982E-04 0.000E+00

     total cpu time spent up to now is      472.3 secs

     total energy              =   -2880.08654328 Ry
     Harris-Foulkes estimate   =   -2880.08654328 Ry
     estimated scf accuracy    <          5.9E-09 Ry

     iteration #  5     ecut=    80.00 Ry     beta= 0.50
     Davidson diagonalization with overlap
     ethr =  3.52E-12,  avg # of iterations =  2.0

     negative rho (up, down):  3.982E-04 0.000E+00

     total cpu time spent up to now is      483.8 secs

     total energy              =   -2880.08654328 Ry
     Harris-Foulkes estimate   =   -2880.08654328 Ry
     estimated scf accuracy    <          1.0E-09 Ry

     iteration #  6     ecut=    80.00 Ry     beta= 0.50
     Davidson diagonalization with overlap
     ethr =  6.00E-13,  avg # of iterations =  1.0

     negative rho (up, down):  3.982E-04 0.000E+00

     total cpu time spent up to now is      494.2 secs

     total energy              =   -2880.08654328 Ry
     Harris-Foulkes estimate   =   -2880.08654328 Ry
     estimated scf accuracy    <          8.7E-10 Ry

     iteration #  7     ecut=    80.00 Ry     beta= 0.50
     Davidson diagonalization with overlap
     ethr =  5.19E-13,  avg # of iterations =  2.0

     negative rho (up, down):  3.982E-04 0.000E+00

     total cpu time spent up to now is      505.7 secs

     total energy              =   -2880.08654328 Ry
     Harris-Foulkes estimate   =   -2880.08654328 Ry
     estimated scf accuracy    <          8.9E-11 Ry

     iteration #  8     ecut=    80.00 Ry     beta= 0.50
     Davidson diagonalization with overlap
     ethr =  1.00E-13,  avg # of iterations =  3.0

     negative rho (up, down):  3.982E-04 0.000E+00

     total cpu time spent up to now is      517.5 secs

     total energy              =   -2880.08654328 Ry
     Harris-Foulkes estimate   =   -2880.08654328 Ry
     estimated scf accuracy    <          8.6E-13 Ry

     iteration #  9     ecut=    80.00 Ry     beta= 0.50
     Davidson diagonalization with overlap
     ethr =  1.00E-13,  avg # of iterations =  1.0

     negative rho (up, down):  3.982E-04 0.000E+00

     total cpu time spent up to now is      528.0 secs

     total energy              =   -2880.08654328 Ry
     Harris-Foulkes estimate   =   -2880.08654328 Ry
     estimated scf accuracy    <          5.2E-13 Ry

     iteration # 10     ecut=    80.00 Ry     beta= 0.50
     Davidson diagonalization with overlap
     ethr =  1.00E-13,  avg # of iterations =  1.0

     negative rho (up, down):  3.982E-04 0.000E+00

     total cpu time spent up to now is      538.5 secs

     total energy              =   -2880.08654328 Ry
     Harris-Foulkes estimate   =   -2880.08654328 Ry
     estimated scf accuracy    <          3.9E-13 Ry

     iteration # 11     ecut=    80.00 Ry     beta= 0.50
     Davidson diagonalization with overlap
     ethr =  1.00E-13,  avg # of iterations =  1.0

     negative rho (up, down):  3.982E-04 0.000E+00

     total cpu time spent up to now is      548.8 secs

     End of self-consistent calculation

          k = 0.0000 0.0000 0.0000 (200813 PWs)   bands (ev):

   -98.5140 -98.5140 -98.4086 -98.4086 -98.3688 -98.3688 -98.1613 -98.1255
   -98.0961 -97.8571 -97.8570 -97.8214 -97.8214 -97.7893 -97.7893 -97.7662
   -97.6917 -97.6487 -19.2098 -19.1502 -19.1484 -19.0741 -19.0489 -18.9945
   -18.9944 -18.9745 -18.9660 -18.9595 -18.8546 -18.8077 -18.7222 -18.6721
   -18.6694 -18.6120 -18.5875 -18.5254 -18.5056 -18.4614 -18.4110 -18.3913
   -18.3719 -18.3527 -18.3378 -18.3314 -18.3303 -18.2520 -18.2509 -18.2349
   -17.5764 -17.0811 -16.3227 -16.1465 -16.0827 -15.9714 -15.8339 -15.4564
   -15.2225 -10.6101 -10.3959 -10.0364  -9.6648  -9.4627  -8.3222  -8.0542
    -7.5118  -7.3495  -7.1122  -6.6007  -6.5232  -6.4080  -6.3242  -6.2380
    -6.1660  -6.0725  -5.9027  -5.6940  -5.0990  -4.9545  -4.9154  -4.8470
    -4.7567  -4.6123  -4.0894  -4.0318

     occupation numbers 
     1.0000   1.0000   1.0000   1.0000   1.0000   1.0000   1.0000   1.0000
     1.0000   1.0000   1.0000   1.0000   1.0000   1.0000   1.0000   1.0000
     1.0000   1.0000   1.0000   1.0000   1.0000   1.0000   1.0000   1.0000
     1.0000   1.0000   1.0000   1.0000   1.0000   1.0000   1.0000   1.0000
     1.0000   1.0000   1.0000   1.0000   1.0000   1.0000   1.0000   1.0000
     1.0000   1.0000   1.0000   1.0000   1.0000   1.0000   1.0000   1.0000
     1.0000   1.0000   1.0000   1.0000   1.0000   1.0000   1.0000   1.0000
     1.0000   1.0000   1.0000   1.0000   1.0000   1.0000   1.0000   1.0000
     1.0000   1.0000   1.0000   1.0000   1.0000   1.0000   1.0000   1.0000
     1.0000   1.0000   1.0000   1.0000   1.0000   1.0000   1.0000   1.0000
     1.0000   1.0000   1.0000   1.0000

          k = 0.0000 0.4060 0.0000 (200873 PWs)   bands (ev):

   -98.5140 -98.5140 -98.4086 -98.4086 -98.3688 -98.3688 -98.1613 -98.1255
   -98.0961 -97.8571 -97.8570 -97.8214 -97.8214 -97.7893 -97.7893 -97.7662
   -97.6917 -97.6487 -19.2089 -19.1502 -19.1482 -19.0741 -19.0503 -18.9947
   -18.9941 -18.9746 -18.9656 -18.9597 -18.8537 -18.8096 -18.7224 -18.6722
   -18.6694 -18.6127 -18.5858 -18.5251 -18.5045 -18.4616 -18.4108 -18.3911
   -18.3732 -18.3530 -18.3381 -18.3306 -18.3304 -18.2521 -18.2517 -18.2351
   -17.5427 -17.0596 -16.3158 -16.1902 -16.0847 -15.9736 -15.8531 -15.4566
   -15.2601 -10.6174 -10.3316 -10.0739  -9.6012  -9.4822  -8.4655  -7.9454
    -7.4391  -7.3574  -7.1133  -6.6256  -6.6000  -6.4159  -6.2981  -6.2106
    -6.1457  -6.0184  -5.7768  -5.6963  -5.2075  -4.9687  -4.9185  -4.8871
    -4.6699  -4.6016  -4.0823  -4.0615

     occupation numbers 
     1.0000   1.0000   1.0000   1.0000   1.0000   1.0000   1.0000   1.0000
     1.0000   1.0000   1.0000   1.0000   1.0000   1.0000   1.0000   1.0000
     1.0000   1.0000   1.0000   1.0000   1.0000   1.0000   1.0000   1.0000
     1.0000   1.0000   1.0000   1.0000   1.0000   1.0000   1.0000   1.0000
     1.0000   1.0000   1.0000   1.0000   1.0000   1.0000   1.0000   1.0000
     1.0000   1.0000   1.0000   1.0000   1.0000   1.0000   1.0000   1.0000
     1.0000   1.0000   1.0000   1.0000   1.0000   1.0000   1.0000   1.0000
     1.0000   1.0000   1.0000   1.0000   1.0000   1.0000   1.0000   1.0000
     1.0000   1.0000   1.0000   1.0000   1.0000   1.0000   1.0000   1.0000
     1.0000   1.0000   1.0000   1.0000   1.0000   1.0000   1.0000   1.0000
     1.0000   1.0000   1.0000   1.0000

          k = 0.0000 0.8120 0.0000 (200909 PWs)   bands (ev):

   -98.5140 -98.5140 -98.4086 -98.4086 -98.3688 -98.3688 -98.1613 -98.1255
   -98.0961 -97.8571 -97.8570 -97.8214 -97.8214 -97.7893 -97.7893 -97.7662
   -97.6917 -97.6487 -19.2066 -19.1502 -19.1476 -19.0741 -19.0539 -18.9950
   -18.9933 -18.9746 -18.9647 -18.9600 -18.8512 -18.8144 -18.7228 -18.6725
   -18.6695 -18.6140 -18.5823 -18.5243 -18.5022 -18.4619 -18.4101 -18.3908
   -18.3759 -18.3537 -18.3390 -18.3304 -18.3286 -18.2534 -18.2526 -18.2356
   -17.4478 -17.0093 -16.3054 -16.2984 -16.0873 -15.9798 -15.9067 -15.4570
   -15.3449 -10.6432 -10.1597 -10.1277  -9.5288  -9.4992  -8.6881  -7.7549
    -7.3918  -7.3500  -7.0918  -6.6542  -6.5732  -6.5169  -6.3288  -6.0858
    -6.0302  -5.8382  -5.7757  -5.6398  -5.3432  -5.0293  -4.9756  -4.8699
    -4.6020  -4.5567  -4.1925  -3.9889

     occupation numbers 
     1.0000   1.0000   1.0000   1.0000   1.0000   1.0000   1.0000   1.0000
     1.0000   1.0000   1.0000   1.0000   1.0000   1.0000   1.0000   1.0000
     1.0000   1.0000   1.0000   1.0000   1.0000   1.0000   1.0000   1.0000
     1.0000   1.0000   1.0000   1.0000   1.0000   1.0000   1.0000   1.0000
     1.0000   1.0000   1.0000   1.0000   1.0000   1.0000   1.0000   1.0000
     1.0000   1.0000   1.0000   1.0000   1.0000   1.0000   1.0000   1.0000
     1.0000   1.0000   1.0000   1.0000   1.0000   1.0000   1.0000   1.0000
     1.0000   1.0000   1.0000   1.0000   1.0000   1.0000   1.0000   1.0000
     1.0000   1.0000   1.0000   1.0000   1.0000   1.0000   1.0000   1.0000
     1.0000   1.0000   1.0000   1.0000   1.0000   1.0000   1.0000   1.0000
     1.0000   1.0000   1.0000   1.0000

          k = 0.0000 1.2179 0.0000 (200781 PWs)   bands (ev):

   -98.5140 -98.5140 -98.4086 -98.4086 -98.3688 -98.3688 -98.1613 -98.1255
   -98.0961 -97.8571 -97.8570 -97.8214 -97.8214 -97.7893 -97.7893 -97.7662
   -97.6917 -97.6487 -19.2043 -19.1503 -19.1470 -19.0741 -19.0576 -18.9954
   -18.9925 -18.9747 -18.9639 -18.9603 -18.8480 -18.8199 -18.7232 -18.6727
   -18.6696 -18.6148 -18.5794 -18.5236 -18.5003 -18.4622 -18.4095 -18.3905
   -18.3778 -18.3544 -18.3400 -18.3305 -18.3267 -18.2552 -18.2530 -18.2361
   -17.3165 -16.9797 -16.4189 -16.2795 -16.1011 -15.9875 -15.9729 -15.4572
   -15.4188 -10.6607 -10.2398  -9.8623  -9.5744  -9.4517  -8.9084  -7.6033
    -7.4200  -7.2722  -7.0805  -6.6469  -6.5619  -6.3220  -6.3082  -6.1011
    -6.0205  -5.8721  -5.6951  -5.6191  -5.3688  -5.0893  -5.0085  -4.8277
    -4.6013  -4.4962  -4.3127  -3.9153

     occupation numbers 
     1.0000   1.0000   1.0000   1.0000   1.0000   1.0000   1.0000   1.0000
     1.0000   1.0000   1.0000   1.0000   1.0000   1.0000   1.0000   1.0000
     1.0000   1.0000   1.0000   1.0000   1.0000   1.0000   1.0000   1.0000
     1.0000   1.0000   1.0000   1.0000   1.0000   1.0000   1.0000   1.0000
     1.0000   1.0000   1.0000   1.0000   1.0000   1.0000   1.0000   1.0000
     1.0000   1.0000   1.0000   1.0000   1.0000   1.0000   1.0000   1.0000
     1.0000   1.0000   1.0000   1.0000   1.0000   1.0000   1.0000   1.0000
     1.0000   1.0000   1.0000   1.0000   1.0000   1.0000   1.0000   1.0000
     1.0000   1.0000   1.0000   1.0000   1.0000   1.0000   1.0000   1.0000
     1.0000   1.0000   1.0000   1.0000   1.0000   1.0000   1.0000   1.0000
     1.0000   1.0000   1.0000   1.0000

          k = 0.0000-1.6239 0.0000 (200682 PWs)   bands (ev):

   -98.5140 -98.5140 -98.4086 -98.4086 -98.3688 -98.3688 -98.1613 -98.1255
   -98.0961 -97.8571 -97.8570 -97.8214 -97.8214 -97.7893 -97.7893 -97.7662
   -97.6917 -97.6487 -19.2034 -19.1503 -19.1468 -19.0741 -19.0591 -18.9955
   -18.9922 -18.9747 -18.9636 -18.9605 -18.8463 -18.8225 -18.7234 -18.6728
   -18.6697 -18.6150 -18.5783 -18.5233 -18.4995 -18.4624 -18.4092 -18.3905
   -18.3784 -18.3547 -18.3404 -18.3305 -18.3259 -18.2559 -18.2531 -18.2363
   -17.2327 -16.9971 -16.4557 -16.2712 -16.1201 -15.9996 -15.9913 -15.4572
   -15.4456 -10.6650 -10.2716  -9.7195  -9.5930  -9.4306  -9.0393  -7.6122
    -7.4276  -7.1255  -7.0827  -6.5875  -6.5652  -6.3394  -6.3068  -6.0762
    -5.9762  -5.9108  -5.6656  -5.6284  -5.4155  -5.0757  -5.0211  -4.8034
    -4.6131  -4.4664  -4.3692  -3.8858

     occupation numbers 
     1.0000   1.0000   1.0000   1.0000   1.0000   1.0000   1.0000   1.0000
     1.0000   1.0000   1.0000   1.0000   1.0000   1.0000   1.0000   1.0000
     1.0000   1.0000   1.0000   1.0000   1.0000   1.0000   1.0000   1.0000
     1.0000   1.0000   1.0000   1.0000   1.0000   1.0000   1.0000   1.0000
     1.0000   1.0000   1.0000   1.0000   1.0000   1.0000   1.0000   1.0000
     1.0000   1.0000   1.0000   1.0000   1.0000   1.0000   1.0000   1.0000
     1.0000   1.0000   1.0000   1.0000   1.0000   1.0000   1.0000   1.0000
     1.0000   1.0000   1.0000   1.0000   1.0000   1.0000   1.0000   1.0000
     1.0000   1.0000   1.0000   1.0000   1.0000   1.0000   1.0000   1.0000
     1.0000   1.0000   1.0000   1.0000   1.0000   1.0000   1.0000   1.0000
     1.0000   1.0000   1.0000   1.0000

     highest occupied level (ev):    -3.8858

!    total energy              =   -2880.08654328 Ry
     Harris-Foulkes estimate   =   -2880.08654328 Ry
     estimated scf accuracy    <          1.7E-14 Ry

     The total energy is the sum of the following terms:

     one-electron contribution =   -8935.71137571 Ry
     hartree contribution      =    4461.03081413 Ry
     xc contribution           =    -552.35189621 Ry
     ewald contribution        =    2146.94591451 Ry

     convergence has been achieved in  11 iterations

     negative rho (up, down):  3.982E-04 0.000E+00

     Forces acting on atoms (cartesian axes, Ry/au):

     atom    1 type  1   force =     0.00000002   -0.00001245   -0.00000898
     atom    2 type  1   force =    -0.00000038   -0.00000065   -0.00000557
     atom    3 type  1   force =     0.00000037   -0.00000063   -0.00000560
     atom    4 type  1   force =    -0.00000042    0.00000282    0.00000102
     atom    5 type  1   force =     0.00000040    0.00000282    0.00000099
     atom    6 type  1   force =    -0.00000004    0.00000219    0.00001389
     atom    7 type  2   force =     0.00001189    0.00000052   -0.00000660
     atom    8 type  2   force =    -0.00001190    0.00000047   -0.00000663
     atom    9 type  2   force =     0.00000003    0.00001579   -0.00000620
     atom   10 type  2   force =     0.00000002   -0.00001473    0.00001154
     atom   11 type  2   force =    -0.00000003    0.00001256    0.00000978
     atom   12 type  2   force =     0.00000605    0.00001463   -0.00001024
     atom   13 type  2   force =    -0.00000602    0.00001459   -0.00001029
     atom   14 type  2   force =     0.00000711   -0.00001895    0.00001144
     atom   15 type  2   force =    -0.00000709   -0.00001897    0.00001143
     The non-local contrib.  to forces
     atom    1 type  1   force =     0.00001739   -0.04941543   -0.23534333
     atom    2 type  1   force =     0.29909417   -0.17827742   -0.07326435
     atom    3 type  1   force =    -0.29908323   -0.17827821   -0.07330656
     atom    4 type  1   force =     0.13407492    0.17540713   -0.22828874
     atom    5 type  1   force =    -0.13404089    0.17540603   -0.22830779
     atom    6 type  1   force =    -0.00000377    0.09753438    0.05792324
     atom    7 type  2   force =     0.34842112   -0.08977527   -0.08463537
     atom    8 type  2   force =    -0.34840893   -0.08977672   -0.08468510
     atom    9 type  2   force =     0.00002066    0.11254239   -0.28328163
     atom   10 type  2   force =    -0.00002358   -0.09087105    0.32950114
     atom   11 type  2   force =     0.00000156    0.08741525   -0.03157057
     atom   12 type  2   force =     0.24038970    0.10363064   -0.17985656
     atom   13 type  2   force =    -0.24036435    0.10363057   -0.17989070
     atom   14 type  2   force =     0.23895742   -0.13866156    0.16633126
     atom   15 type  2   force =    -0.23898015   -0.13866100    0.16629870
     The ionic contribution  to forces
     atom    1 type  1   force =    -0.00496901  -11.98124310   69.51918305
     atom    2 type  1   force =   -62.03065089   -2.03865782  -38.80961205
     atom    3 type  1   force =    62.03610914   -2.03868724  -38.80095004
     atom    4 type  1   force =   -65.03717766    4.95574978   34.98516375
     atom    5 type  1   force =    65.03228295    4.95575448   34.99432214
     atom    6 type  1   force =     0.00469241    4.98814094  -65.64169908
     atom    7 type  2   force =   -34.98778985    1.46252276    2.92684362
     atom    8 type  2   force =    34.98736775    1.46254909    2.93184614
     atom    9 type  2   force =    -0.00214182    1.25720908   29.37835360
[...]

          k = 0.0000 0.8120 0.0000 (200909 PWs)   bands (ev):

   -98.5140 -98.5140 -98.4086 -98.4086 -98.3688 -98.3688 -98.1613 -98.1255
   -98.0961 -97.8571 -97.8570 -97.8214 -97.8214 -97.7893 -97.7893 -97.7662
   -97.6917 -97.6487 -19.2066 -19.1502 -19.1477 -19.0741 -19.0539 -18.9950
   -18.9933 -18.9746 -18.9647 -18.9600 -18.8512 -18.8144 -18.7228 -18.6725
   -18.6695 -18.6140 -18.5823 -18.5243 -18.5022 -18.4619 -18.4101 -18.3908
   -18.3759 -18.3537 -18.3390 -18.3304 -18.3286 -18.2534 -18.2526 -18.2356
   -17.4478 -17.0093 -16.3054 -16.2984 -16.0873 -15.9798 -15.9067 -15.4570
   -15.3449 -10.6432 -10.1597 -10.1277  -9.5288  -9.4992  -8.6881  -7.7549
    -7.3918  -7.3500  -7.0918  -6.6542  -6.5732  -6.5169  -6.3288  -6.0858
    -6.0302  -5.8382  -5.7757  -5.6398  -5.3432  -5.0293  -4.9756  -4.8699
    -4.6020  -4.5567  -4.1925  -3.9889

     occupation numbers 
     1.0000   1.0000   1.0000   1.0000   1.0000   1.0000   1.0000   1.0000
     1.0000   1.0000   1.0000   1.0000   1.0000   1.0000   1.0000   1.0000
     1.0000   1.0000   1.0000   1.0000   1.0000   1.0000   1.0000   1.0000
     1.0000   1.0000   1.0000   1.0000   1.0000   1.0000   1.0000   1.0000
     1.0000   1.0000   1.0000   1.0000   1.0000   1.0000   1.0000   1.0000
     1.0000   1.0000   1.0000   1.0000   1.0000   1.0000   1.0000   1.0000
     1.0000   1.0000   1.0000   1.0000   1.0000   1.0000   1.0000   1.0000
     1.0000   1.0000   1.0000   1.0000   1.0000   1.0000   1.0000   1.0000
     1.0000   1.0000   1.0000   1.0000   1.0000   1.0000   1.0000   1.0000
     1.0000   1.0000   1.0000   1.0000   1.0000   1.0000   1.0000   1.0000
     1.0000   1.0000   1.0000   1.0000

          k = 0.0000 1.2179 0.0000 (200781 PWs)   bands (ev):

   -98.5140 -98.5140 -98.4086 -98.4086 -98.3688 -98.3688 -98.1613 -98.1255
   -98.0961 -97.8571 -97.8570 -97.8214 -97.8214 -97.7893 -97.7893 -97.7662
   -97.6917 -97.6487 -19.2043 -19.1503 -19.1470 -19.0741 -19.0576 -18.9954
   -18.9925 -18.9747 -18.9639 -18.9603 -18.8481 -18.8199 -18.7233 -18.6728
   -18.6696 -18.6148 -18.5794 -18.5236 -18.5003 -18.4622 -18.4095 -18.3905
   -18.3778 -18.3544 -18.3400 -18.3305 -18.3267 -18.2552 -18.2530 -18.2361
   -17.3165 -16.9797 -16.4189 -16.2795 -16.1011 -15.9876 -15.9729 -15.4572
   -15.4188 -10.6607 -10.2399  -9.8623  -9.5744  -9.4517  -8.9084  -7.6033
    -7.4200  -7.2722  -7.0805  -6.6469  -6.5619  -6.3220  -6.3082  -6.1012
    -6.0205  -5.8721  -5.6951  -5.6191  -5.3688  -5.0893  -5.0085  -4.8277
    -4.6013  -4.4962  -4.3127  -3.9153

     occupation numbers 
     1.0000   1.0000   1.0000   1.0000   1.0000   1.0000   1.0000   1.0000
     1.0000   1.0000   1.0000   1.0000   1.0000   1.0000   1.0000   1.0000
     1.0000   1.0000   1.0000   1.0000   1.0000   1.0000   1.0000   1.0000
     1.0000   1.0000   1.0000   1.0000   1.0000   1.0000   1.0000   1.0000
     1.0000   1.0000   1.0000   1.0000   1.0000   1.0000   1.0000   1.0000
     1.0000   1.0000   1.0000   1.0000   1.0000   1.0000   1.0000   1.0000
     1.0000   1.0000   1.0000   1.0000   1.0000   1.0000   1.0000   1.0000
     1.0000   1.0000   1.0000   1.0000   1.0000   1.0000   1.0000   1.0000
     1.0000   1.0000   1.0000   1.0000   1.0000   1.0000   1.0000   1.0000
     1.0000   1.0000   1.0000   1.0000   1.0000   1.0000   1.0000   1.0000
     1.0000   1.0000   1.0000   1.0000

          k = 0.0000-1.6239 0.0000 (200682 PWs)   bands (ev):

   -98.5140 -98.5140 -98.4086 -98.4085 -98.3688 -98.3688 -98.1613 -98.1255
   -98.0961 -97.8571 -97.8570 -97.8214 -97.8213 -97.7893 -97.7893 -97.7662
   -97.6917 -97.6487 -19.2034 -19.1503 -19.1468 -19.0742 -19.0591 -18.9955
   -18.9922 -18.9747 -18.9636 -18.9605 -18.8463 -18.8225 -18.7234 -18.6729
   -18.6697 -18.6150 -18.5783 -18.5233 -18.4995 -18.4624 -18.4092 -18.3905
   -18.3784 -18.3547 -18.3404 -18.3305 -18.3259 -18.2559 -18.2531 -18.2363
   -17.2327 -16.9971 -16.4557 -16.2712 -16.1201 -15.9996 -15.9913 -15.4572
   -15.4456 -10.6650 -10.2716  -9.7195  -9.5930  -9.4306  -9.0393  -7.6123
    -7.4277  -7.1255  -7.0827  -6.5875  -6.5652  -6.3394  -6.3068  -6.0762
    -5.9762  -5.9108  -5.6656  -5.6284  -5.4155  -5.0757  -5.0211  -4.8034
    -4.6131  -4.4664  -4.3692  -3.8858

     occupation numbers 
     1.0000   1.0000   1.0000   1.0000   1.0000   1.0000   1.0000   1.0000
     1.0000   1.0000   1.0000   1.0000   1.0000   1.0000   1.0000   1.0000
     1.0000   1.0000   1.0000   1.0000   1.0000   1.0000   1.0000   1.0000
     1.0000   1.0000   1.0000   1.0000   1.0000   1.0000   1.0000   1.0000
     1.0000   1.0000   1.0000   1.0000   1.0000   1.0000   1.0000   1.0000
     1.0000   1.0000   1.0000   1.0000   1.0000   1.0000   1.0000   1.0000
     1.0000   1.0000   1.0000   1.0000   1.0000   1.0000   1.0000   1.0000
     1.0000   1.0000   1.0000   1.0000   1.0000   1.0000   1.0000   1.0000
     1.0000   1.0000   1.0000   1.0000   1.0000   1.0000   1.0000   1.0000
     1.0000   1.0000   1.0000   1.0000   1.0000   1.0000   1.0000   1.0000
     1.0000   1.0000   1.0000   1.0000

     highest occupied level (ev):    -3.8858

!    total energy              =   -2880.08654328 Ry
     Harris-Foulkes estimate   =   -2880.08654328 Ry
     estimated scf accuracy    <          3.1E-14 Ry

     The total energy is the sum of the following terms:

     one-electron contribution =   -8935.72472027 Ry
     hartree contribution      =    4461.03749672 Ry
     xc contribution           =    -552.35193799 Ry
     ewald contribution        =    2146.95261825 Ry

     convergence has been achieved in  20 iterations

     negative rho (up, down):  3.982E-04 0.000E+00

     Forces acting on atoms (cartesian axes, Ry/au):

     atom    1 type  1   force =    -0.00000007   -0.00000805   -0.00000938
     atom    2 type  1   force =     0.00000104   -0.00000423   -0.00000361
     atom    3 type  1   force =    -0.00000105   -0.00000421   -0.00000365
     atom    4 type  1   force =    -0.00000000    0.00000474   -0.00000032
     atom    5 type  1   force =    -0.00000005    0.00000471   -0.00000033
     atom    6 type  1   force =    -0.00000007    0.00000026    0.00001446
     atom    7 type  2   force =     0.00000982    0.00000051   -0.00000555
     atom    8 type  2   force =    -0.00000980    0.00000046   -0.00000558
     atom    9 type  2   force =     0.00000005    0.00001212   -0.00000511
     atom   10 type  2   force =     0.00000003   -0.00001328    0.00000966
     atom   11 type  2   force =    -0.00000001    0.00001138    0.00000838
     atom   12 type  2   force =     0.00000487    0.00001231   -0.00000777
     atom   13 type  2   force =    -0.00000480    0.00001228   -0.00000782
     atom   14 type  2   force =     0.00000590   -0.00001449    0.00000831
     atom   15 type  2   force =    -0.00000585   -0.00001450    0.00000831
     The non-local contrib.  to forces
     atom    1 type  1   force =     0.00001734   -0.04940693   -0.23533748
     atom    2 type  1   force =     0.29909449   -0.17828578   -0.07326630
     atom    3 type  1   force =    -0.29908361   -0.17828662   -0.07330848
     atom    4 type  1   force =     0.13407921    0.17541844   -0.22828789
     atom    5 type  1   force =    -0.13404528    0.17541735   -0.22830697
     atom    6 type  1   force =    -0.00000377    0.09752579    0.05791710
     atom    7 type  2   force =     0.34841991   -0.08977600   -0.08463464
     atom    8 type  2   force =    -0.34840771   -0.08977746   -0.08468436
     atom    9 type  2   force =     0.00002067    0.11254247   -0.28327972
     atom   10 type  2   force =    -0.00002358   -0.09087122    0.32949967
     atom   11 type  2   force =     0.00000156    0.08741404   -0.03157325
     atom   12 type  2   force =     0.24038862    0.10362916   -0.17985578
     atom   13 type  2   force =    -0.24036326    0.10362909   -0.17988991
     atom   14 type  2   force =     0.23895623   -0.13865894    0.16632941
     atom   15 type  2   force =    -0.23897896   -0.13865837    0.16629686
     The ionic contribution  to forces
     atom    1 type  1   force =    -0.00496883  -11.98104439   69.51922959
     atom    2 type  1   force =   -62.03074818   -2.03874769  -38.80976634
     atom    3 type  1   force =    62.03620648   -2.03877715  -38.80110436
     atom    4 type  1   force =   -65.03728853    4.95577247   34.98530382
     atom    5 type  1   force =    65.03239367    4.95577702   34.99446168
     atom    6 type  1   force =     0.00469225    4.98807312  -65.64169277
     atom    7 type  2   force =   -34.98785439    1.46251803    2.92684122
     atom    8 type  2   force =    34.98743228    1.46254429    2.93184339
     atom    9 type  2   force =    -0.00214168    1.25703931   29.37838144
     atom   10 type  2   force =     0.00219712   -0.29797736  -30.47725786
     atom   11 type  2   force =     0.00021430   -4.06632108   -2.28794541
     atom   12 type  2   force =   -26.20253832   -3.64185904   25.83969257
     atom   13 type  2   force =    26.19889597   -3.64185509   25.84328270
     atom   14 type  2   force =   -25.35363069    4.31243253  -25.20234488
     atom   15 type  2   force =    25.35713857    4.31242502  -25.19892479
     The local contribution  to forces
     atom    1 type  1   force =     0.00495162   12.03047599  -69.28528913
     atom    2 type  1   force =    61.73409176    2.21539877   38.88288388
     atom    3 type  1   force =   -61.73956101    2.21542902   38.87426373
     atom    4 type  1   force =    64.90316805   -5.12946001  -34.75872205
     atom    5 type  1   force =   -64.89830687   -5.12946345  -34.76786080
     atom    6 type  1   force =    -0.00468839   -5.08570395   65.58324560
     atom    7 type  2   force =    34.67201328   -1.38283100   -2.84939014
     atom    8 type  2   force =   -34.67160226   -1.38285596   -2.85434726
     atom    9 type  2   force =     0.00212311   -1.35727004  -29.12245728
     atom   10 type  2   force =    -0.00217577    0.37870754   30.18024276
     atom   11 type  2   force =    -0.00021547    3.98588661    2.31378008
     atom   12 type  2   force =    25.98297342    3.54761375  -25.67512776
     atom   13 type  2   force =   -25.97935420    3.54760984  -25.67868679
     atom   14 type  2   force =    25.13572594   -4.18596652   25.04984672
     atom   15 type  2   force =   -25.13921285   -4.18595948   25.04645635
     The core correction contribution to forces
     atom    1 type  1   force =    -0.00000002   -0.00003255    0.00138747
     atom    2 type  1   force =    -0.00243696    0.00163049    0.00014526
     atom    3 type  1   force =     0.00243709    0.00163056    0.00014559
     atom    4 type  1   force =     0.00004153   -0.00172606    0.00170571
     atom    5 type  1   force =    -0.00004168   -0.00172606    0.00170567
     atom    6 type  1   force =    -0.00000005    0.00010530    0.00054470
     atom    7 type  2   force =    -0.03256896    0.01008950    0.00717794
     atom    8 type  2   force =     0.03256786    0.01008960    0.00718260
     atom    9 type  2   force =    -0.00000200   -0.01229961    0.02735026
     atom   10 type  2   force =     0.00000230    0.01012777   -0.03247493
     atom   11 type  2   force =    -0.00000034   -0.00696814    0.00574695
     atom   12 type  2   force =    -0.02081879   -0.00937152    0.01528305
     atom   13 type  2   force =     0.02081665   -0.00937151    0.01528599
     atom   14 type  2   force =    -0.02104562    0.01217848   -0.01382302
     atom   15 type  2   force =     0.02104744    0.01217837   -0.01382017
     The Hubbard contrib.    to forces
     atom    1 type  1   force =     0.00000000    0.00000000    0.00000000
     atom    2 type  1   force =     0.00000000    0.00000000    0.00000000
     atom    3 type  1   force =     0.00000000    0.00000000    0.00000000
     atom    4 type  1   force =     0.00000000    0.00000000    0.00000000
     atom    5 type  1   force =     0.00000000    0.00000000    0.00000000
     atom    6 type  1   force =     0.00000000    0.00000000    0.00000000
     atom    7 type  2   force =     0.00000000    0.00000000    0.00000000
     atom    8 type  2   force =     0.00000000    0.00000000    0.00000000
     atom    9 type  2   force =     0.00000000    0.00000000    0.00000000
     atom   10 type  2   force =     0.00000000    0.00000000    0.00000000
     atom   11 type  2   force =     0.00000000    0.00000000    0.00000000
     atom   12 type  2   force =     0.00000000    0.00000000    0.00000000
     atom   13 type  2   force =     0.00000000    0.00000000    0.00000000
     atom   14 type  2   force =     0.00000000    0.00000000    0.00000000
     atom   15 type  2   force =     0.00000000    0.00000000    0.00000000
     The SCF correction term to forces
     atom    1 type  1   force =    -0.00000019   -0.00000015    0.00000005
     atom    2 type  1   force =    -0.00000008    0.00000001   -0.00000023
     atom    3 type  1   force =    -0.00000001    0.00000001   -0.00000024
     atom    4 type  1   force =    -0.00000028   -0.00000008   -0.00000003
     atom    5 type  1   force =     0.00000009   -0.00000012   -0.00000002
     atom    6 type  1   force =    -0.00000012    0.00000003   -0.00000029
     atom    7 type  2   force =    -0.00000003    0.00000001   -0.00000005
     atom    8 type  2   force =     0.00000001    0.00000002   -0.00000007
     atom    9 type  2   force =    -0.00000006    0.00000002    0.00000006
     atom   10 type  2   force =    -0.00000005    0.00000001   -0.00000009
     atom   11 type  2   force =    -0.00000007   -0.00000001   -0.00000010
     atom   12 type  2   force =    -0.00000008   -0.00000001    0.00000004
     atom   13 type  2   force =     0.00000003   -0.00000002    0.00000007
     atom   14 type  2   force =     0.00000001   -0.00000001   -0.00000004
     atom   15 type  2   force =    -0.00000006   -0.00000001   -0.00000006

     Total force =     0.000050     Total SCF correction =     0.000001


     Computing stress (Cartesian axis) and pressure


     negative rho (up, down):  3.982E-04 0.000E+00
          total   stress  (Ry/bohr**3)                   (kbar)     P=   -0.12
  -0.00000122  -0.00000000  -0.00000000         -0.18     -0.00     -0.00
  -0.00000000  -0.00000003   0.00000003         -0.00     -0.00      0.00
  -0.00000000   0.00000003  -0.00000126         -0.00      0.00     -0.19

     kinetic stress (kbar)   1132.30     -0.00     -0.00
                               -0.00   1138.15     16.83
                               -0.00     16.83   1145.71

     local   stress (kbar)   1277.16     -0.12      0.26
                               -0.12 -58207.77   1770.44
                                0.26   1770.44  -5078.62

     nonloc. stress (kbar)    918.03      0.00     -0.00
                                0.00    922.02     -0.40
                               -0.00     -0.40    920.84

     hartree stress (kbar)   2330.21      0.05     -0.14
                                0.05  31582.06   -732.98
                               -0.14   -732.98   5566.96

     exc-cor stress (kbar)   1528.85      0.00      0.00
                                0.00   1529.13     -0.29
                                0.00     -0.29   1528.73

     corecor stress (kbar)  -2411.03      0.00      0.00
                                0.00  -2411.46     -0.45
                                0.00     -0.45  -2411.70

     ewald   stress (kbar)  -4775.70      0.07     -0.13
                                0.07  25447.88  -1053.16
                               -0.13  -1053.16  -1672.11

     hubbard stress (kbar)      0.00      0.00      0.00
                                0.00      0.00      0.00
                                0.00      0.00      0.00

     london  stress (kbar)      0.00      0.00      0.00
                                0.00      0.00      0.00
                                0.00      0.00      0.00

     DFT-D3  stress (kbar)      0.00      0.00      0.00
                                0.00      0.00      0.00
                                0.00      0.00      0.00

     XDM     stress (kbar)      0.00      0.00      0.00
                                0.00      0.00      0.00
                                0.00      0.00      0.00

     dft-nl  stress (kbar)      0.00      0.00      0.00
                                0.00      0.00      0.00
                                0.00      0.00      0.00

     TS-vdW  stress (kbar)      0.00      0.00      0.00
                                0.00      0.00      0.00
                                0.00      0.00      0.00



     Writing output data file NR.save/
 
     init_run     :     22.31s CPU     24.26s WALL (       2 calls)
     electrons    :    837.59s CPU    872.20s WALL (       5 calls)
     update_pot   :     22.40s CPU     22.61s WALL (       3 calls)
     forces       :     31.82s CPU     33.01s WALL (       5 calls)
     stress       :    106.64s CPU    108.96s WALL (       5 calls)

     Called by init_run:
     wfcinit      :      7.46s CPU      8.24s WALL (       2 calls)
     wfcinit:atom :      0.09s CPU      0.09s WALL (       4 calls)
     wfcinit:wfcr :      7.11s CPU      7.80s WALL (       4 calls)
     potinit      :      4.91s CPU      5.25s WALL (       2 calls)
     hinit0       :      4.91s CPU      5.28s WALL (       2 calls)

     Called by electrons:
     c_bands      :    553.01s CPU    561.37s WALL (      70 calls)
     sum_band     :    145.32s CPU    158.88s WALL (      70 calls)
     v_of_rho     :     93.51s CPU     97.06s WALL (      72 calls)
     v_h          :      5.15s CPU      5.50s WALL (      72 calls)
     v_xc         :    100.68s CPU    104.30s WALL (      82 calls)
     newd         :     34.58s CPU     42.38s WALL (      72 calls)
     mix_rho      :     12.86s CPU     13.58s WALL (      70 calls)

     Called by c_bands:
     init_us_2    :      7.28s CPU      7.38s WALL (     304 calls)
     cegterg      :    528.86s CPU    536.99s WALL (     140 calls)

     Called by sum_band:
     sum_band:bec :      0.02s CPU      0.02s WALL (     140 calls)
     addusdens    :     37.46s CPU     49.93s WALL (      70 calls)

     Called by *egterg:
     h_psi        :    443.96s CPU    447.79s WALL (     487 calls)
     s_psi        :     23.60s CPU     23.62s WALL (     487 calls)
     g_psi        :      1.55s CPU      1.56s WALL (     343 calls)
     cdiaghg      :      5.28s CPU      6.26s WALL (     471 calls)
     cegterg:over :     21.23s CPU     21.37s WALL (     343 calls)
     cegterg:upda :     20.38s CPU     21.44s WALL (     343 calls)
     cegterg:last :      7.98s CPU      7.99s WALL (     146 calls)
     cdiaghg:chol :      0.43s CPU      0.79s WALL (     471 calls)
     cdiaghg:inve :      0.08s CPU      0.10s WALL (     471 calls)
     cdiaghg:para :      0.93s CPU      1.07s WALL (     942 calls)

     Called by h_psi:
     h_psi:pot    :    441.00s CPU    443.01s WALL (     487 calls)
     h_psi:calbec :     22.08s CPU     22.27s WALL (     487 calls)
     vloc_psi     :    395.31s CPU    397.12s WALL (     487 calls)
     add_vuspsi   :     23.61s CPU     23.62s WALL (     487 calls)

     General routines
     calbec       :     34.25s CPU     34.55s WALL (     677 calls)
     fft          :     93.30s CPU     98.74s WALL (    1057 calls)
     ffts         :      2.07s CPU      2.41s WALL (     142 calls)
     fftw         :    383.59s CPU    385.34s WALL (   73648 calls)
     interpolate  :      5.04s CPU      5.54s WALL (      72 calls)
 
     Parallel routines
     fft_scatt_xy :     78.67s CPU     78.97s WALL (   74847 calls)
     fft_scatt_yz :    171.56s CPU    177.88s WALL (   74847 calls)
 
     PWSCF        :  17m 3.21s CPU  17m46.48s WALL

 
   This run was terminated on:  15: 2:26  29Apr2021            

=------------------------------------------------------------------------------=
   JOB DONE.
=------------------------------------------------------------------------------=
