srun: Job 3537010 step creation temporarily disabled, retrying (Socket timed out on send/recv operation)
srun: Step created for job 3537010

     Program PWSCF v.6.4.1 starts on  8Nov2021 at 16:15:37 

     This program is part of the open-source Quantum ESPRESSO suite
     for quantum simulation of materials; please cite
         "P. Giannozzi et al., J. Phys.:Condens. Matter 21 395502 (2009);
         "P. Giannozzi et al., J. Phys.:Condens. Matter 29 465901 (2017);
          URL http://www.quantum-espresso.org", 
     in publications or presentations arising from this work. More details at
     http://www.quantum-espresso.org/quote

     Parallel version (MPI), running on   128 processors

     MPI processes distributed on     2 nodes
     K-points division:     npool     =       8
     R & G space division:  proc/nbgrp/npool/nimage =      16
     Waiting for input...
     Reading input from standard input
Warning: card &IONS ignored
Warning: card   UPSCALE           = 100.D0, ignored
Warning: card / ignored
Warning: card &CELL ignored
Warning: card   CELL_DYNAMICS     = 'BFGS' ignored
Warning: card   PRESS_CONV_THR    = 0.5D0 ignored
Warning: card   CELL_DOFREE = 'ALL' ignored
Warning: card / ignored

     Current dimensions of program PWSCF are:
     Max number of different atomic species (ntypx) = 10
     Max number of k-points (npk) =  40000
     Max angular momentum in pseudopotentials (lmaxx) =  3

     Subspace diagonalization in iterative solution of the eigenvalue problem:
     one sub-group per band group will be used
     scalapack distributed-memory algorithm (size of sub-group:  2*  2 procs)

 
     Parallelization info
     --------------------
     sticks:   dense  smooth     PW     G-vecs:    dense   smooth      PW
     Min         727     349     95                67891    22581    3255
     Max         728     350     97                67894    22586    3258
     Sum       11641    5599   1531              1086275   361327   52101
 


     bravais-lattice index     =            0
     lattice parameter (alat)  =      18.3770  a.u.
     unit-cell volume          =    5753.7501 (a.u.)^3
     number of atoms/cell      =           72
     number of atomic types    =            3
     number of electrons       =       876.00
     number of Kohn-Sham states=          526
     kinetic-energy cutoff     =      60.0000  Ry
     charge density cutoff     =     500.0000  Ry
     convergence threshold     =      1.0E-08
     mixing beta               =       0.5000
     number of iterations used =            8  plain     mixing
     Exchange-correlation      = SLA  PW   PSX  PSC ( 1  4 10  8 0 0)
     Using LIBXC version       =    4   3   4

     celldm(1)=  18.377017  celldm(2)=   0.000000  celldm(3)=   0.000000
     celldm(4)=   0.000000  celldm(5)=   0.000000  celldm(6)=   0.000000

     crystal axes: (cart. coord. in units of alat)
               a(1) = (   1.000000   0.000006   0.000017 )  
               a(2) = (  -0.499993   0.865992  -0.000022 )  
               a(3) = (   0.000019  -0.000017   1.070560 )  

     reciprocal axes: (cart. coord. in units 2 pi/alat)
               b(1) = (  0.999997  0.577363 -0.000009 )  
               b(2) = ( -0.000007  1.154742  0.000018 )  
               b(3) = ( -0.000016  0.000014  0.934091 )  


     PseudoPot. # 1 for Zn read from file:
     ./GBRV_PBEsol/zn_pbesol_v1.uspp.F.UPF
     MD5 check sum: 7d8615e52efe7c1e2b1899de8658bae2
     Pseudo is Ultrasoft, Zval = 20.0
     Generated by new atomic code, or converted to UPF format
     Using radial grid of  943 points,  6 beta functions with: 
                l(1) =   0
                l(2) =   0
                l(3) =   1
                l(4) =   1
                l(5) =   2
                l(6) =   2
     Q(r) pseudized with  8 coefficients,  rinner =    1.100   1.100   1.100
                                                       1.100   1.100

     PseudoPot. # 2 for O  read from file:
     ./GBRV_PBEsol/o_pbesol_v1.2.uspp.F.UPF
     MD5 check sum: 501638753501ef6325af9037351f7734
     Pseudo is Ultrasoft + core correction, Zval =  6.0
     Generated by new atomic code, or converted to UPF format
     Using radial grid of  737 points,  5 beta functions with: 
                l(1) =   0
                l(2) =   0
                l(3) =   1
                l(4) =   1
                l(5) =   2
     Q(r) pseudized with  8 coefficients,  rinner =    0.900   0.900   0.900
                                                       0.900   0.900

     PseudoPot. # 3 for Mg read from file:
     ./GBRV_PBEsol/mg_pbesol_v1.4.uspp.F.UPF
     MD5 check sum: 4059f37963cf5867752dbf5ab2400678
     Pseudo is Ultrasoft, Zval = 10.0
     Generated by new atomic code, or converted to UPF format
     Using radial grid of  821 points,  7 beta functions with: 
                l(1) =   0
                l(2) =   0
                l(3) =   0
                l(4) =   1
                l(5) =   1
                l(6) =   2
                l(7) =   2
     Q(r) pseudized with  8 coefficients,  rinner =    1.200   1.200   1.200
                                                       1.200   1.200

     atomic species   valence    mass     pseudopotential
        Zn            20.00    65.38000     Zn( 1.00)
        O              6.00    15.99900     O ( 1.00)
        Mg            10.00    24.30500     Mg( 1.00)

     No symmetry found


                                    s                        frac. trans.

      isym =  1     identity                                     

 cryst.   s( 1) = (     1          0          0      )
                  (     0          1          0      )
                  (     0          0          1      )

 cart.    s( 1) = (  1.0000000 -0.0000000 -0.0000000 )
                  ( -0.0000000  1.0000000  0.0000000 )
                  ( -0.0000000 -0.0000000  1.0000000 )


   Cartesian axes

     site n.     atom                  positions (alat units)
         1           Zn  tau(   1) = (   0.1666491   0.0974608   0.2072048  )
         2           Zn  tau(   2) = (   0.4998442   0.0953410   0.2067889  )
         3           Zn  tau(   3) = (   0.8332371   0.0974524   0.2054953  )
         4           Zn  tau(   4) = (   0.0000018   0.3848122   0.2063760  )
         5           Zn  tau(   5) = (   0.3333066   0.3847916   0.2078695  )
         6           Zn  tau(   6) = (   0.6668753   0.3848922   0.2076995  )
         7           Zn  tau(   7) = (  -0.1647476   0.6732879   0.2069021  )
         8           Zn  tau(   8) = (   0.1647496   0.6732754   0.2070733  )
         9           Zn  tau(   9) = (   0.5002200   0.6726778   0.2048026  )
        10           Zn  tau(  10) = (   0.1658366   0.0950780   0.7429128  )
        11           Zn  tau(  11) = (   0.4994346   0.0978245   0.7429016  )
        12           Zn  tau(  12) = (   0.3340182   0.3847515   0.7435285  )
        13           Zn  tau(  13) = (   0.6659849   0.3846961   0.7436104  )
        14           Zn  tau(  14) = (  -0.1688630   0.6739442   0.7423156  )
        15           Zn  tau(  15) = (   0.1701776   0.6739903   0.7426654  )
        16           Zn  tau(  16) = (  -0.0007678   0.1929063   0.4746708  )
        17           Zn  tau(  17) = (   0.3335803   0.1926652   0.4758344  )
        18           Zn  tau(  18) = (   0.6666697   0.1924446   0.4748831  )
        19           Zn  tau(  19) = (  -0.1665033   0.4809066   0.4753806  )
        20           Zn  tau(  20) = (   0.1666960   0.4810504   0.4753029  )
        21           Zn  tau(  21) = (   0.5000950   0.4815959   0.4746074  )
        22           Zn  tau(  22) = (  -0.3339211   0.7689481   0.4731215  )
        23           Zn  tau(  23) = (   0.3340874   0.7697167   0.4723383  )
        24           Zn  tau(  24) = (   0.0005463   0.1921750   1.0088352  )
        25           Zn  tau(  25) = (   0.3328378   0.1929988   1.0108610  )
        26           Zn  tau(  26) = (   0.6660693   0.1932896   1.0101955  )
        27           Zn  tau(  27) = (  -0.1667853   0.4815434   1.0097970  )
        28           Zn  tau(  28) = (   0.1670066   0.4814088   1.0103035  )
        29           Zn  tau(  29) = (   0.5001929   0.4811441   1.0104652  )
        30           Zn  tau(  30) = (   0.0000899   0.7686137   1.0086547  )
        31           Mg  tau(  31) = (   0.8325173   0.0950950   0.7431035  )
        32           Mg  tau(  32) = (   0.0011532   0.3854963   0.7437695  )
        33           Mg  tau(  33) = (   0.4998399   0.6730019   0.7422040  )
        34           Mg  tau(  34) = (   0.0000895   0.7698364   0.4769841  )
        35           Mg  tau(  35) = (  -0.3315091   0.7699199   1.0115531  )
        36           Mg  tau(  36) = (   0.3318634   0.7685327   1.0115595  )
        37           O   tau(  37) = (   0.1666074   0.0962372   0.0036958  )
        38           O   tau(  38) = (   0.4996972   0.0955623   0.0031460  )
        39           O   tau(  39) = (   0.8331144   0.0958822   0.0016960  )
        40           O   tau(  40) = (   0.0000226   0.3846330   0.0024430  )
        41           O   tau(  41) = (   0.3335675   0.3851730   0.0042368  )
        42           O   tau(  42) = (   0.6667641   0.3852115   0.0041243  )
        43           O   tau(  43) = (  -0.1659122   0.6734412   0.0036109  )
        44           O   tau(  44) = (   0.1658182   0.6732711   0.0038618  )
        45           O   tau(  45) = (   0.5004311   0.6744600   0.0011154  )
        46           O   tau(  46) = (   0.1663162   0.0957376   0.5384949  )
        47           O   tau(  47) = (   0.5000743   0.0962794   0.5392075  )
        48           O   tau(  48) = (   0.8331294   0.0957030   0.5395979  )
        49           O   tau(  49) = (   0.0001419   0.3850056   0.5404674  )
        50           O   tau(  50) = (   0.3335267   0.3850788   0.5394106  )
        51           O   tau(  51) = (   0.6666123   0.3848838   0.5391975  )
        52           O   tau(  52) = (  -0.1670259   0.6737184   0.5384710  )
        53           O   tau(  53) = (   0.1673948   0.6738957   0.5384997  )
        54           O   tau(  54) = (   0.4998556   0.6738030   0.5391348  )
        55           O   tau(  55) = (  -0.0003617   0.1926958   0.2711216  )
        56           O   tau(  56) = (   0.3336493   0.1924037   0.2717807  )
        57           O   tau(  57) = (   0.6664476   0.1922660   0.2710287  )
        58           O   tau(  58) = (  -0.1663140   0.4809395   0.2714722  )
        59           O   tau(  59) = (   0.1664029   0.4808771   0.2714527  )
        60           O   tau(  60) = (   0.5000799   0.4812380   0.2711567  )
        61           O   tau(  61) = (  -0.3330793   0.7696409   0.2690293  )
        62           O   tau(  62) = (   0.0000121   0.7700356   0.2738244  )
        63           O   tau(  63) = (   0.3332762   0.7698546   0.2683632  )
        64           O   tau(  64) = (  -0.0010397   0.1926895   0.8050478  )
        65           O   tau(  65) = (   0.3322758   0.1922217   0.8070355  )
        66           O   tau(  66) = (   0.6667712   0.1922820   0.8065809  )
        67           O   tau(  67) = (  -0.1664183   0.4809978   0.8061554  )
        68           O   tau(  68) = (   0.1673604   0.4815198   0.8067345  )
        69           O   tau(  69) = (   0.5001069   0.4812857   0.8066321  )
        70           O   tau(  70) = (  -0.3345114   0.7692914   0.8083814  )
        71           O   tau(  71) = (   0.0003701   0.7694425   0.8043104  )
        72           O   tau(  72) = (   0.3351400   0.7701145   0.8084777  )

   Crystallographic axes

     site n.     atom                  positions (cryst. coord.)
         1           Zn  tau(   1) = (  0.2229170  0.1125447  0.1935468  )
         2           Zn  tau(   2) = (  0.5548872  0.1100946  0.1931528  )
         3           Zn  tau(   3) = (  0.8894980  0.1125304  0.1919392  )
         4           Zn  tau(   4) = (  0.2221765  0.4443624  0.1927795  )
         5           Zn  tau(   5) = (  0.5554683  0.4443364  0.1941691  )
         6           Zn  tau(   6) = (  0.8890939  0.4444504  0.1940049  )
         7           Zn  tau(   7) = (  0.2239829  0.7774786  0.1932777  )
         8           Zn  tau(   8) = (  0.5534718  0.7774619  0.1934323  )
         9           Zn  tau(   9) = (  0.8885960  0.7767695  0.1913058  )
        10           Zn  tau(  10) = (  0.2207243  0.1098028  0.6939468  )
        11           Zn  tau(  11) = (  0.5559068  0.1129720  0.6939310  )
        12           Zn  tau(  12) = (  0.5561521  0.4442997  0.6945234  )
        13           Zn  tau(  13) = (  0.8880857  0.4442336  0.6945944  )
        14           Zn  tau(  14) = (  0.2202419  0.7782460  0.6934028  )
        15           Zn  tau(  15) = (  0.5593079  0.7782970  0.6937240  )
        16           Zn  tau(  16) = (  0.1106052  0.2227655  0.4433885  )
        17           Zn  tau(  17) = (  0.4448130  0.2224849  0.4444700  )
        18           Zn  tau(  18) = (  0.7777739  0.2222279  0.4435759  )
        19           Zn  tau(  19) = (  0.1111510  0.5553326  0.4440584  )
        20           Zn  tau(  20) = (  0.4444322  0.5554964  0.4439804  )
        21           Zn  tau(  21) = (  0.7781450  0.5561241  0.4433253  )
        22           Zn  tau(  22) = (  0.1100384  0.8879473  0.4419551  )
        23           Zn  tau(  23) = (  0.7784885  0.8888303  0.4412126  )
        24           Zn  tau(  24) = (  0.1114924  0.2219306  0.9423466  )
        25           Zn  tau(  25) = (  0.4442584  0.2228796  0.9442335  )
        26           Zn  tau(  26) = (  0.7776568  0.2232132  0.9436064  )
        27           Zn  tau(  27) = (  0.1112321  0.5560775  0.9432519  )
        28           Zn  tau(  28) = (  0.4449452  0.5559198  0.9437196  )
        29           Zn  tau(  29) = (  0.7779775  0.5556119  0.9438652  )
        30           Zn  tau(  30) = (  0.4438506  0.8875684  0.9421863  )
        31           Mg  tau(  31) = (  0.8874124  0.1098178  0.6941141  )
        32           Mg  tau(  32) = (  0.2237182  0.4451620  0.6947539  )
        33           Mg  tau(  33) = (  0.8883985  0.7771534  0.6932877  )
        34           Mg  tau(  34) = (  0.4445607  0.8889708  0.4455577  )
        35           Mg  tau(  35) = (  0.1130068  0.8890791  0.9448991  )
        36           Mg  tau(  36) = (  0.7755762  0.8874727  0.9448943  )
        37           O   tau(  37) = (  0.2221706  0.1111280  0.0034509  )
        38           O   tau(  38) = (  0.5548697  0.1103465  0.0029319  )
        39           O   tau(  39) = (  0.8884705  0.1107136  0.0015721  )
        40           O   tau(  40) = (  0.2220955  0.4441519  0.0022876  )
        41           O   tau(  41) = (  0.5559512  0.4447733  0.0039577  )
        42           O   tau(  42) = (  0.8891689  0.4448155  0.0038472  )
        43           O   tau(  43) = (  0.2229086  0.7776520  0.0033853  )
        44           O   tau(  44) = (  0.5545397  0.7774533  0.0036143  )
        45           O   tau(  45) = (  0.8898378  0.7788238  0.0010435  )
        46           O   tau(  46) = (  0.2215864  0.1105607  0.5030019  )
        47           O   tau(  47) = (  0.5556562  0.1111842  0.5036621  )
        48           O   tau(  48) = (  0.8883774  0.1105163  0.5040214  )
        49           O   tau(  49) = (  0.2224254  0.4445918  0.5048513  )
        50           O   tau(  50) = (  0.5558514  0.4446740  0.5038587  )
        51           O   tau(  51) = (  0.8888232  0.4444466  0.5036542  )
        52           O   tau(  52) = (  0.2219504  0.7779816  0.5029933  )
        53           O   tau(  53) = (  0.5564722  0.7781841  0.5030147  )
        54           O   tau(  54) = (  0.8888785  0.7780748  0.5036025  )
        55           O   tau(  55) = (  0.1108915  0.2225188  0.2532550  )
        56           O   tau(  56) = (  0.4447327  0.2221792  0.2538653  )
        57           O   tau(  57) = (  0.7774504  0.2220180  0.2531574  )
        58           O   tau(  58) = (  0.1113611  0.5553670  0.2535894  )
        59           O   tau(  59) = (  0.4440408  0.5552926  0.2535657  )
        60           O   tau(  60) = (  0.7779251  0.5557072  0.2532838  )
        61           O   tau(  61) = (  0.1112819  0.8887436  0.2513143  )
        62           O   tau(  62) = (  0.4446000  0.8891972  0.2557880  )
        63           O   tau(  63) = (  0.7777586  0.8889859  0.2506814  )
        64           O   tau(  64) = (  0.1102052  0.2225210  0.7519907  )
        65           O   tau(  65) = (  0.4432494  0.2219786  0.7538419  )
        66           O   tau(  66) = (  0.7777786  0.2220460  0.7534118  )
        67           O   tau(  67) = (  0.1112859  0.5554439  0.7530321  )
        68           O   tau(  68) = (  0.4453648  0.5560444  0.7535676  )
        69           O   tau(  69) = (  0.7779750  0.5557718  0.7534666  )
        70           O   tau(  70) = (  0.1096434  0.8883496  0.7551182  )
        71           O   tau(  71) = (  0.4446111  0.8885218  0.7513101  )
        72           O   tau(  72) = (  0.7797678  0.8892957  0.7551974  )

     number of k points=    36  Marzari-Vanderbilt smearing, width (Ry)=  0.0010
                       cart. coord. in units 2pi/alat
        k(    1) = (   0.0000000   0.0000000   0.0000000), wk =   0.0312500
        k(    2) = (  -0.0000041   0.0000036   0.2335227), wk =   0.0625000
        k(    3) = (   0.0000081  -0.0000072  -0.4670455), wk =   0.0312500
        k(    4) = (  -0.0000017   0.2886855   0.0000045), wk =   0.0625000
        k(    5) = (  -0.0000057   0.2886891   0.2335272), wk =   0.0625000
        k(    6) = (   0.0000065   0.2886783  -0.4670410), wk =   0.0625000
        k(    7) = (   0.0000024   0.2886819  -0.2335183), wk =   0.0625000
        k(    8) = (   0.0000034  -0.5773709  -0.0000089), wk =   0.0312500
        k(    9) = (  -0.0000007  -0.5773673   0.2335138), wk =   0.0625000
        k(   10) = (   0.0000115  -0.5773781  -0.4670544), wk =   0.0312500
        k(   11) = (   0.2499992   0.1443408  -0.0000022), wk =   0.0625000
        k(   12) = (   0.2499951   0.1443444   0.2335206), wk =   0.0625000
        k(   13) = (   0.2500073   0.1443336  -0.4670476), wk =   0.0625000
        k(   14) = (   0.2500032   0.1443372  -0.2335249), wk =   0.0625000
        k(   15) = (   0.2499975   0.4330263   0.0000023), wk =   0.0625000
        k(   16) = (   0.2499934   0.4330299   0.2335251), wk =   0.0625000
        k(   17) = (   0.2500056   0.4330191  -0.4670432), wk =   0.0625000
        k(   18) = (   0.2500016   0.4330227  -0.2335204), wk =   0.0625000
        k(   19) = (   0.2500025  -0.4330301  -0.0000111), wk =   0.0625000
        k(   20) = (   0.2499984  -0.4330265   0.2335117), wk =   0.0625000
        k(   21) = (   0.2500106  -0.4330373  -0.4670566), wk =   0.0625000
        k(   22) = (   0.2500066  -0.4330337  -0.2335338), wk =   0.0625000
        k(   23) = (   0.2500008  -0.1443446  -0.0000066), wk =   0.0625000
        k(   24) = (   0.2499968  -0.1443410   0.2335161), wk =   0.0625000
        k(   25) = (   0.2500090  -0.1443518  -0.4670521), wk =   0.0625000
        k(   26) = (   0.2500049  -0.1443482  -0.2335294), wk =   0.0625000
        k(   27) = (  -0.4999983  -0.2886817   0.0000043), wk =   0.0312500
        k(   28) = (  -0.5000024  -0.2886781   0.2335270), wk =   0.0625000
        k(   29) = (  -0.4999902  -0.2886889  -0.4670412), wk =   0.0312500
        k(   30) = (  -0.5000000   0.0000038   0.0000088), wk =   0.0625000
        k(   31) = (  -0.5000041   0.0000074   0.2335315), wk =   0.0625000
        k(   32) = (  -0.4999919  -0.0000034  -0.4670367), wk =   0.0625000
        k(   33) = (  -0.4999959   0.0000002  -0.2335140), wk =   0.0625000
        k(   34) = (  -0.4999950  -0.8660526  -0.0000046), wk =   0.0312500
        k(   35) = (  -0.4999990  -0.8660490   0.2335181), wk =   0.0625000
        k(   36) = (  -0.4999868  -0.8660598  -0.4670501), wk =   0.0312500

                       cryst. coord.
        k(    1) = (   0.0000000   0.0000000   0.0000000), wk =   0.0312500
        k(    2) = (  -0.0000000   0.0000000   0.2500000), wk =   0.0625000
        k(    3) = (   0.0000000  -0.0000000  -0.5000000), wk =   0.0312500
        k(    4) = (  -0.0000000   0.2500000  -0.0000000), wk =   0.0625000
        k(    5) = (  -0.0000000   0.2500000   0.2500000), wk =   0.0625000
        k(    6) = (   0.0000000   0.2500000  -0.5000000), wk =   0.0625000
        k(    7) = (  -0.0000000   0.2500000  -0.2500000), wk =   0.0625000
        k(    8) = (   0.0000000  -0.5000000   0.0000000), wk =   0.0312500
        k(    9) = (  -0.0000000  -0.5000000   0.2500000), wk =   0.0625000
        k(   10) = (   0.0000000  -0.5000000  -0.5000000), wk =   0.0312500
        k(   11) = (   0.2500000   0.0000000  -0.0000000), wk =   0.0625000
        k(   12) = (   0.2500000   0.0000000   0.2500000), wk =   0.0625000
        k(   13) = (   0.2500000  -0.0000000  -0.5000000), wk =   0.0625000
        k(   14) = (   0.2500000  -0.0000000  -0.2500000), wk =   0.0625000
        k(   15) = (   0.2500000   0.2500000  -0.0000000), wk =   0.0625000
        k(   16) = (   0.2500000   0.2500000   0.2500000), wk =   0.0625000
        k(   17) = (   0.2500000   0.2500000  -0.5000000), wk =   0.0625000
        k(   18) = (   0.2500000   0.2500000  -0.2500000), wk =   0.0625000
        k(   19) = (   0.2500000  -0.5000000   0.0000000), wk =   0.0625000
        k(   20) = (   0.2500000  -0.5000000   0.2500000), wk =   0.0625000
        k(   21) = (   0.2500000  -0.5000000  -0.5000000), wk =   0.0625000
        k(   22) = (   0.2500000  -0.5000000  -0.2500000), wk =   0.0625000
        k(   23) = (   0.2500000  -0.2500000   0.0000000), wk =   0.0625000
        k(   24) = (   0.2500000  -0.2500000   0.2500000), wk =   0.0625000
        k(   25) = (   0.2500000  -0.2500000  -0.5000000), wk =   0.0625000
        k(   26) = (   0.2500000  -0.2500000  -0.2500000), wk =   0.0625000
        k(   27) = (  -0.5000000  -0.0000000   0.0000000), wk =   0.0312500
        k(   28) = (  -0.5000000  -0.0000000   0.2500000), wk =   0.0625000
        k(   29) = (  -0.5000000  -0.0000000  -0.5000000), wk =   0.0312500
        k(   30) = (  -0.5000000   0.2500000   0.0000000), wk =   0.0625000
        k(   31) = (  -0.5000000   0.2500000   0.2500000), wk =   0.0625000
        k(   32) = (  -0.5000000   0.2500000  -0.5000000), wk =   0.0625000
        k(   33) = (  -0.5000000   0.2500000  -0.2500000), wk =   0.0625000
        k(   34) = (  -0.5000000  -0.5000000   0.0000000), wk =   0.0312500
        k(   35) = (  -0.5000000  -0.5000000   0.2500000), wk =   0.0625000
        k(   36) = (  -0.5000000  -0.5000000  -0.5000000), wk =   0.0312500

     Dense  grid:  1086275 G-vectors     FFT dimensions: ( 135, 135, 144)

     Smooth grid:   361327 G-vectors     FFT dimensions: (  96,  96, 100)

     Dynamical RAM for                 wfc:      22.65 MB

     Dynamical RAM for     wfc (w. buffer):     135.90 MB

     Dynamical RAM for           str. fact:       3.11 MB

     Dynamical RAM for           local pot:       0.00 MB

     Dynamical RAM for          nlocal pot:      48.31 MB

     Dynamical RAM for                qrad:      20.97 MB

     Dynamical RAM for          rho,v,vnew:       6.86 MB

     Dynamical RAM for               rhoin:       2.29 MB

     Dynamical RAM for            rho*nmix:      16.58 MB

     Dynamical RAM for           G-vectors:       4.06 MB

     Dynamical RAM for          h,s,v(r/c):      50.66 MB

     Dynamical RAM for          <psi|beta>:       9.01 MB

     Dynamical RAM for                 psi:      90.60 MB

     Dynamical RAM for                hpsi:      90.60 MB

     Dynamical RAM for                spsi:      90.60 MB

     Dynamical RAM for      wfcinit/wfcrot:      55.86 MB

     Dynamical RAM for           addusdens:      32.11 MB

     Dynamical RAM for          addusforce:      55.09 MB

     Dynamical RAM for         addusstress:      28.94 MB

     Estimated static dynamical RAM per process >     248.47 MB

     Estimated max dynamical RAM per process >     579.94 MB

     Estimated total dynamical RAM >      72.49 GB

     Check: negative core charge=   -0.000002

     Initial potential from superposition of free atoms

     starting charge  874.19467, renormalised to  876.00000
     Starting wfcs are  564 randomized atomic wfcs

     total cpu time spent up to now is       21.7 secs

     Self-consistent Calculation

     iteration #  1     ecut=    60.00 Ry     beta= 0.50
     Davidson diagonalization with overlap
     ethr =  1.00E-02,  avg # of iterations =  4.5

     total cpu time spent up to now is       92.0 secs

     total energy              =  -15745.14642641 Ry
     Harris-Foulkes estimate   =  -15756.39123207 Ry
     estimated scf accuracy    <      17.20151540 Ry

     iteration #  2     ecut=    60.00 Ry     beta= 0.50
     Davidson diagonalization with overlap
     ethr =  1.96E-03,  avg # of iterations =  3.9

     total cpu time spent up to now is      184.1 secs

     total energy              =  -15750.05672955 Ry
     Harris-Foulkes estimate   =  -15753.90887523 Ry
     estimated scf accuracy    <       8.83530511 Ry

     iteration #  3     ecut=    60.00 Ry     beta= 0.50
     Davidson diagonalization with overlap
     ethr =  1.01E-03,  avg # of iterations =  2.3

     total cpu time spent up to now is      243.8 secs

     total energy              =  -15751.68102945 Ry
     Harris-Foulkes estimate   =  -15751.75429616 Ry
     estimated scf accuracy    <       0.19084053 Ry

     iteration #  4     ecut=    60.00 Ry     beta= 0.50
     Davidson diagonalization with overlap
     ethr =  2.18E-05,  avg # of iterations =  4.8

     total cpu time spent up to now is      352.4 secs

     total energy              =  -15751.70301398 Ry
     Harris-Foulkes estimate   =  -15751.73625566 Ry
     estimated scf accuracy    <       0.09473930 Ry

     iteration #  5     ecut=    60.00 Ry     beta= 0.50
     Davidson diagonalization with overlap
     ethr =  1.08E-05,  avg # of iterations =  4.3

     total cpu time spent up to now is      424.3 secs

     total energy              =  -15751.71687446 Ry
     Harris-Foulkes estimate   =  -15751.71821125 Ry
     estimated scf accuracy    <       0.00425071 Ry

     iteration #  6     ecut=    60.00 Ry     beta= 0.50
     Davidson diagonalization with overlap
     ethr =  4.85E-07,  avg # of iterations =  2.0

     total cpu time spent up to now is      480.3 secs

     total energy              =  -15751.71762303 Ry
     Harris-Foulkes estimate   =  -15751.71782987 Ry
     estimated scf accuracy    <       0.00055247 Ry

     iteration #  7     ecut=    60.00 Ry     beta= 0.50
     Davidson diagonalization with overlap
     ethr =  6.31E-08,  avg # of iterations =  2.0

     total cpu time spent up to now is      531.8 secs

     total energy              =  -15751.71774341 Ry
     Harris-Foulkes estimate   =  -15751.71775697 Ry
     estimated scf accuracy    <       0.00008819 Ry

     iteration #  8     ecut=    60.00 Ry     beta= 0.50
     Davidson diagonalization with overlap
     ethr =  1.01E-08,  avg # of iterations =  2.0

     total cpu time spent up to now is      579.1 secs

     total energy              =  -15751.71776170 Ry
     Harris-Foulkes estimate   =  -15751.71776149 Ry
     estimated scf accuracy    <       0.00001681 Ry

     iteration #  9     ecut=    60.00 Ry     beta= 0.50
     Davidson diagonalization with overlap
     ethr =  1.92E-09,  avg # of iterations =  2.0

     total cpu time spent up to now is      632.2 secs

     total energy              =  -15751.71776482 Ry
     Harris-Foulkes estimate   =  -15751.71776530 Ry
     estimated scf accuracy    <       0.00000243 Ry

     iteration # 10     ecut=    60.00 Ry     beta= 0.50
     Davidson diagonalization with overlap
     ethr =  2.78E-10,  avg # of iterations =  2.0

     total cpu time spent up to now is      679.3 secs

     total energy              =  -15751.71776528 Ry
     Harris-Foulkes estimate   =  -15751.71776534 Ry
     estimated scf accuracy    <       0.00000039 Ry

     iteration # 11     ecut=    60.00 Ry     beta= 0.50
     Davidson diagonalization with overlap
     ethr =  4.44E-11,  avg # of iterations =  2.0

     total cpu time spent up to now is      726.9 secs

     total energy              =  -15751.71776537 Ry
     Harris-Foulkes estimate   =  -15751.71776537 Ry
     estimated scf accuracy    <       0.00000004 Ry

     iteration # 12     ecut=    60.00 Ry     beta= 0.50
     Davidson diagonalization with overlap
     ethr =  4.90E-12,  avg # of iterations =  2.0

     total cpu time spent up to now is      776.3 secs

     End of self-consistent calculation

          k = 0.0000 0.0000 0.0000 ( 45253 PWs)   bands (ev):

  -114.8814-114.8795-114.8754-114.8748-114.8735-114.8732-114.8728-114.8725
  -114.8718-114.8710-114.8692-114.8687-114.8667-114.8664-114.8662-114.8646
  -114.8643-114.8643-114.8640-114.8634-114.8592-114.8591-114.8584-114.8578
  -114.8577-114.8575-114.8566-114.8566-114.8554-114.8478 -69.2422 -69.2386
   -69.2383 -69.2380 -69.2345 -69.2340 -69.2334 -69.2332 -69.2328 -69.2327
   -69.2325 -69.2323 -69.2321 -69.2319 -69.2317 -69.2311 -69.2308 -69.2303
   -69.2302 -69.2301 -69.2292 -69.2291 -69.2290 -69.2289 -69.2285 -69.2281
   -69.2274 -69.2268 -69.2267 -69.2264 -69.2264 -69.2262 -69.2260 -69.2253
   -69.2250 -69.2247 -69.2243 -69.2241 -69.2240 -69.2239 -69.2232 -69.2230
   -69.2229 -69.2228 -69.2227 -69.2226 -69.2224 -69.2220 -69.2216 -69.2215
   -69.2209 -69.2207 -69.2207 -69.2201 -69.2200 -69.2200 -69.2198 -69.2194
   -69.2191 -69.2188 -69.2185 -69.2185 -69.2181 -69.2176 -69.2174 -69.2172
   -69.2170 -69.2169 -69.2166 -69.2161 -69.2156 -69.2154 -69.2152 -69.2149
   -69.2138 -69.2137 -69.2131 -69.2128 -69.2128 -69.2126 -69.2123 -69.2118
   -69.2115 -69.2112 -69.2099 -69.2092 -69.2088 -69.2085 -69.2046 -69.2009
   -64.3466 -64.3400 -64.3324 -64.3318 -64.3214 -64.3189 -31.3368 -31.3318
   -31.3307 -31.3304 -31.3271 -31.3266 -31.3246 -31.3229 -31.3214 -31.3198
   -31.3172 -31.3142 -31.3125 -31.3069 -31.3062 -31.3058 -31.3026 -31.3000
    -9.6867  -9.3297  -9.3135  -9.2390  -9.2233  -9.2162  -9.1759  -9.1617
    -9.1422  -9.0306  -9.0252  -9.0050  -8.9939  -8.9896  -8.9648  -8.9564
    -8.9175  -8.9088  -8.8992  -8.8831  -8.8804  -8.8726  -8.8693  -8.8347
    -8.8174  -8.7737  -8.7524  -8.7384  -8.7323  -8.7052  -8.7036  -8.6952
    -8.6570  -8.6023  -8.5544  -8.4244   2.1134   2.1232   2.1323   2.1439
     2.1566   2.1717   2.1791   2.1875   2.2117   2.2349   2.2574   2.2661
     2.2756   2.3103   2.3199   2.3463   2.3781   2.3853   2.3966   2.4689
     2.5232   2.5373   2.5394   2.5440   2.5647   2.5672   2.5879   2.5991
     2.6061   2.6325   2.6401   2.6475   2.6550   2.6615   2.6715   2.6846
     2.7041   2.7135   2.7264   2.7366   2.7397   2.7608   2.7656   2.7734
     2.7931   2.8037   2.8055   2.8165   2.8316   2.8364   2.8507   2.8609
     2.8830   2.8858   2.8930   2.8943   2.8998   2.9027   2.9063   2.9151
     2.9168   2.9193   2.9294   2.9385   2.9464   2.9638   2.9688   2.9840
     2.9866   3.0161   3.0173   3.0268   3.0455   3.0663   3.0792   3.0931
     3.1371   3.1674   3.1897   3.2049   3.2183   3.2357   3.2466   3.2629
     3.2901   3.3025   3.3135   3.3451   3.3570   3.3637   3.3756   3.4185
     3.4258   3.4419   3.4714   3.4977   3.5219   3.5299   3.5489   3.5634
     3.5782   3.6181   3.6340   3.6459   3.6565   3.6634   3.6768   3.6836
     3.6894   3.7111   3.7177   3.7306   3.7367   3.7467   3.7577   3.7653
     3.7668   3.7729   3.7833   3.7920   3.7966   3.7993   3.8065   3.8160
     3.8229   3.8277   3.8308   3.8345   3.8420   3.8444   3.8483   3.8500
     3.8526   3.8701   3.8754   3.8855   3.8909   3.9000   3.9069   3.9113
     3.9180   3.9184   3.9384   3.9561   4.0132   4.0366   4.0557   4.0632
     4.0733   4.0981   4.1142   4.2029   4.2099   4.2352   4.2960   4.3046
     4.3387   4.3926   4.4171   4.4448   4.4607   4.4887   4.5164   4.5280
     4.5749   4.6816   4.7095   4.7370   4.7602   4.8166   4.8673   4.9079
     4.9461   4.9636   4.9838   4.9999   5.0275   5.0482   5.0947   5.1118
     5.1733   5.1976   5.2356   5.2847   5.3258   5.4259   5.4453   5.4599
     5.4775   5.6949   5.7308   5.7459   5.8121   5.8709   5.9000   5.9757
     6.0001   6.1613   6.1880   6.2184   6.2242   6.2505   6.2550   6.2855
     6.3040   6.3522   6.3639   6.4021   6.4152   6.4950   6.5543   6.5807
     6.6182   6.6715   6.7197   6.7317   6.7652   6.7811   6.8089   6.8218
     6.8506   6.8538   6.8679   6.8907   6.8962   6.9062   6.9160   6.9350
     6.9431   6.9682   6.9813   6.9924   6.9947   7.0102   7.0207   7.0278
     7.0471   7.2543   7.2852   7.2997   7.3141   7.3296   7.3502   7.3595
     7.3911   7.4297   7.4525   7.4991   7.5256   7.5722   7.5818   7.7188
     7.7343   7.7456   7.7531   8.0273   8.1087   8.1149   9.1961  11.7803
    11.7973  12.4818  12.5131  12.5483  12.6066  12.6589  12.7074  13.4360
    13.4435  13.4507  13.4655  13.4893  13.4964  13.5098  13.5955  13.6235
    13.6818  13.7388  13.8132  13.9217  15.6143  15.6279  15.6822  15.7057
    15.7225  15.7429  15.7709  15.8561  15.9406  15.9544  15.9725  15.9931
    16.0068  16.0261  16.0449  16.0512  16.0708  16.0867  16.1108  16.1310
    16.1505  16.1957  16.1995  16.2848  16.3503  16.3688  16.4433  16.4669
    16.6167  16.9373  16.9471  16.9589  16.9700  16.9851  17.0003  17.0260
    17.0439  17.0555  17.0596  17.0665  17.0745  17.0914  17.0925  17.1008
    17.1109  17.6802  17.7893  18.1213  18.1672  18.1993  18.2929  18.5267
    18.5642  18.9483  18.9715  18.9934  19.1448  19.2092  19.2598  19.3020
    19.3188  19.3529  19.4057  19.4299  19.4609  19.4727

     occupation numbers 
     1.0000   1.0000   1.0000   1.0000   1.0000   1.0000   1.0000   1.0000
     1.0000   1.0000   1.0000   1.0000   1.0000   1.0000   1.0000   1.0000
     1.0000   1.0000   1.0000   1.0000   1.0000   1.0000   1.0000   1.0000
     1.0000   1.0000   1.0000   1.0000   1.0000   1.0000   1.0000   1.0000
     1.0000   1.0000   1.0000   1.0000   1.0000   1.0000   1.0000   1.0000
     1.0000   1.0000   1.0000   1.0000   1.0000   1.0000   1.0000   1.0000
     1.0000   1.0000   1.0000   1.0000   1.0000   1.0000   1.0000   1.0000
     1.0000   1.0000   1.0000   1.0000   1.0000   1.0000   1.0000   1.0000
     1.0000   1.0000   1.0000   1.0000   1.0000   1.0000   1.0000   1.0000
     1.0000   1.0000   1.0000   1.0000   1.0000   1.0000   1.0000   1.0000
     1.0000   1.0000   1.0000   1.0000   1.0000   1.0000   1.0000   1.0000
     1.0000   1.0000   1.0000   1.0000   1.0000   1.0000   1.0000   1.0000
     1.0000   1.0000   1.0000   1.0000   1.0000   1.0000   1.0000   1.0000
     1.0000   1.0000   1.0000   1.0000   1.0000   1.0000   1.0000   1.0000
     1.0000   1.0000   1.0000   1.0000   1.0000   1.0000   1.0000   1.0000
     1.0000   1.0000   1.0000   1.0000   1.0000   1.0000   1.0000   1.0000
     1.0000   1.0000   1.0000   1.0000   1.0000   1.0000   1.0000   1.0000
     1.0000   1.0000   1.0000   1.0000   1.0000   1.0000   1.0000   1.0000
     1.0000   1.0000   1.0000   1.0000   1.0000   1.0000   1.0000   1.0000
     1.0000   1.0000   1.0000   1.0000   1.0000   1.0000   1.0000   1.0000
     1.0000   1.0000   1.0000   1.0000   1.0000   1.0000   1.0000   1.0000
     1.0000   1.0000   1.0000   1.0000   1.0000   1.0000   1.0000   1.0000
     1.0000   1.0000   1.0000   1.0000   1.0000   1.0000   1.0000   1.0000
     1.0000   1.0000   1.0000   1.0000   1.0000   1.0000   1.0000   1.0000
     1.0000   1.0000   1.0000   1.0000   1.0000   1.0000   1.0000   1.0000
     1.0000   1.0000   1.0000   1.0000   1.0000   1.0000   1.0000   1.0000
     1.0000   1.0000   1.0000   1.0000   1.0000   1.0000   1.0000   1.0000
     1.0000   1.0000   1.0000   1.0000   1.0000   1.0000   1.0000   1.0000
     1.0000   1.0000   1.0000   1.0000   1.0000   1.0000   1.0000   1.0000
     1.0000   1.0000   1.0000   1.0000   1.0000   1.0000   1.0000   1.0000
     1.0000   1.0000   1.0000   1.0000   1.0000   1.0000   1.0000   1.0000
     1.0000   1.0000   1.0000   1.0000   1.0000   1.0000   1.0000   1.0000
     1.0000   1.0000   1.0000   1.0000   1.0000   1.0000   1.0000   1.0000
     1.0000   1.0000   1.0000   1.0000   1.0000   1.0000   1.0000   1.0000
     1.0000   1.0000   1.0000   1.0000   1.0000   1.0000   1.0000   1.0000
     1.0000   1.0000   1.0000   1.0000   1.0000   1.0000   1.0000   1.0000
     1.0000   1.0000   1.0000   1.0000   1.0000   1.0000   1.0000   1.0000
     1.0000   1.0000   1.0000   1.0000   1.0000   1.0000   1.0000   1.0000
     1.0000   1.0000   1.0000   1.0000   1.0000   1.0000   1.0000   1.0000
     1.0000   1.0000   1.0000   1.0000   1.0000   1.0000   1.0000   1.0000
     1.0000   1.0000   1.0000   1.0000   1.0000   1.0000   1.0000   1.0000
     1.0000   1.0000   1.0000   1.0000   1.0000   1.0000   1.0000   1.0000
     1.0000   1.0000   1.0000   1.0000   1.0000   1.0000   1.0000   1.0000
     1.0000   1.0000   1.0000   1.0000   1.0000   1.0000   1.0000   1.0000
     1.0000   1.0000   1.0000   1.0000   1.0000   1.0000   1.0000   1.0000
     1.0000   1.0000   1.0000   1.0000   1.0000   1.0000   1.0000   1.0000
     1.0000   1.0000   1.0000   1.0000   1.0000   1.0000   1.0000   1.0000
     1.0000   1.0000   1.0000   1.0000   1.0000   1.0000   1.0000   1.0000
     1.0000   1.0000   1.0000   1.0000   1.0000   1.0000   1.0000   1.0000
     1.0000   1.0000   1.0000   1.0000   1.0000   1.0000   1.0000   1.0000
     1.0000   1.0000   1.0000   1.0000   1.0000   1.0000   1.0000   1.0000
     1.0000   1.0000   1.0000   1.0000   1.0000   1.0000   1.0000   1.0000
     1.0000   1.0000   1.0000   1.0000   1.0000   1.0000   1.0000   1.0000
     1.0000   1.0000   1.0000   1.0000   1.0000   1.0000   1.0000   1.0000
     1.0000   1.0000   1.0000   1.0000   1.0000   1.0000   0.0000   0.0000
     0.0000   0.0000   0.0000   0.0000   0.0000   0.0000   0.0000   0.0000
     0.0000   0.0000   0.0000   0.0000   0.0000   0.0000   0.0000   0.0000
     0.0000   0.0000   0.0000   0.0000   0.0000   0.0000   0.0000   0.0000
     0.0000   0.0000   0.0000   0.0000   0.0000   0.0000   0.0000   0.0000
     0.0000   0.0000   0.0000   0.0000   0.0000   0.0000   0.0000   0.0000
     0.0000   0.0000   0.0000   0.0000   0.0000   0.0000   0.0000   0.0000
     0.0000   0.0000   0.0000   0.0000   0.0000   0.0000   0.0000   0.0000
     0.0000   0.0000   0.0000   0.0000   0.0000   0.0000   0.0000   0.0000
     0.0000   0.0000   0.0000   0.0000   0.0000   0.0000   0.0000   0.0000
     0.0000   0.0000   0.0000   0.0000   0.0000   0.0000   0.0000   0.0000
     0.0000   0.0000   0.0000   0.0000   0.0000   0.0000

          k =-0.0000 0.0000 0.2335 ( 45151 PWs)   bands (ev):

  -114.8814-114.8795-114.8754-114.8748-114.8735-114.8732-114.8728-114.8725
  -114.8718-114.8710-114.8692-114.8687-114.8667-114.8664-114.8662-114.8646
  -114.8643-114.8643-114.8640-114.8634-114.8592-114.8591-114.8584-114.8578
  -114.8577-114.8575-114.8566-114.8566-114.8554-114.8478 -69.2422 -69.2386
   -69.2383 -69.2380 -69.2345 -69.2340 -69.2334 -69.2332 -69.2328 -69.2327
   -69.2325 -69.2323 -69.2321 -69.2319 -69.2317 -69.2311 -69.2308 -69.2303
   -69.2302 -69.2301 -69.2292 -69.2291 -69.2290 -69.2289 -69.2285 -69.2281
   -69.2274 -69.2268 -69.2267 -69.2264 -69.2264 -69.2262 -69.2260 -69.2253
   -69.2250 -69.2247 -69.2243 -69.2241 -69.2240 -69.2239 -69.2232 -69.2230
   -69.2229 -69.2228 -69.2227 -69.2225 -69.2224 -69.2220 -69.2216 -69.2215
   -69.2209 -69.2207 -69.2207 -69.2201 -69.2200 -69.2200 -69.2198 -69.2194
   -69.2191 -69.2188 -69.2185 -69.2185 -69.2181 -69.2176 -69.2174 -69.2172
   -69.2170 -69.2169 -69.2166 -69.2161 -69.2156 -69.2154 -69.2152 -69.2149
   -69.2138 -69.2137 -69.2131 -69.2128 -69.2128 -69.2126 -69.2123 -69.2118
   -69.2115 -69.2112 -69.2099 -69.2092 -69.2088 -69.2085 -69.2046 -69.2009
   -64.3466 -64.3400 -64.3324 -64.3318 -64.3214 -64.3189 -31.3368 -31.3318
   -31.3307 -31.3304 -31.3271 -31.3266 -31.3246 -31.3229 -31.3214 -31.3198
   -31.3172 -31.3142 -31.3125 -31.3069 -31.3062 -31.3058 -31.3026 -31.3000
    -9.6629  -9.4513  -9.2296  -9.2187  -9.2083  -9.1857  -9.1654  -9.1531
    -9.1257  -9.0974  -9.0616  -9.0520  -9.0248  -8.9814  -8.9660  -8.9340
    -8.9274  -8.9048  -8.8803  -8.8732  -8.8709  -8.8471  -8.8367  -8.8216
    -8.8183  -8.7757  -8.7529  -8.7407  -8.7386  -8.7128  -8.7065  -8.7010
    -8.6589  -8.6073  -8.5572  -8.4258   2.1282   2.1337   2.1429   2.1609
     2.1667   2.1780   2.2126   2.2155   2.2339   2.2585   2.2751   2.2839
     2.3003   2.3220   2.3284   2.3564   2.3797   2.3862   2.4288   2.4812
     2.5262   2.5304   2.5364   2.5402   2.5505   2.5588   2.5700   2.5818
     2.5993   2.6051   2.6253   2.6352   2.6454   2.6549   2.6623   2.6769
     2.6813   2.6963   2.7119   2.7272   2.7395   2.7515   2.7640   2.7768
     2.7898   2.7976   2.8043   2.8168   2.8372   2.8434   2.8552   2.8642
     2.8713   2.8822   2.8889   2.8964   2.8995   2.9038   2.9082   2.9152
     2.9215   2.9268   2.9304   2.9455   2.9517   2.9632   2.9667   2.9822
     2.9963   3.0129   3.0155   3.0273   3.0448   3.0567   3.0674   3.0742
     3.1165   3.1324   3.1473   3.1613   3.1695   3.1850   3.1982   3.2184
     3.2444   3.2586   3.2820   3.2922   3.3134   3.3413   3.3648   3.3818
     3.4125   3.4401   3.4520   3.5020   3.5092   3.5230   3.5610   3.5735
     3.5845   3.6016   3.6201   3.6316   3.6521   3.6622   3.6764   3.6864
     3.6957   3.7112   3.7366   3.7403   3.7423   3.7539   3.7554   3.7663
     3.7746   3.7772   3.7835   3.7894   3.7935   3.7990   3.8037   3.8075
     3.8160   3.8215   3.8324   3.8424   3.8540   3.8609   3.8660   3.8771
     3.8800   3.8865   3.8904   3.8956   3.8998   3.9045   3.9086   3.9138
     3.9265   3.9382   3.9491   3.9701   3.9956   3.9990   4.0223   4.0454
     4.0532   4.0871   4.1956   4.3150   4.3307   4.3429   4.3660   4.3969
     4.4162   4.4427   4.4581   4.4844   4.5006   4.5078   4.5379   4.5626
     4.5813   4.6674   4.6993   4.7500   4.7718   4.8179   4.8917   4.9083
     4.9567   4.9776   4.9920   5.0063   5.0416   5.0536   5.0704   5.1173
     5.1529   5.1648   5.2237   5.2500   5.2945   5.3243   5.3503   5.4427
     5.6891   5.7272   5.7513   5.7995   5.8535   5.8684   5.9092   5.9508
     6.0822   6.1228   6.1901   6.2117   6.2502   6.2565   6.2894   6.3002
     6.3119   6.3305   6.3410   6.3573   6.3759   6.3846   6.3993   6.4079
     6.4284   6.4412   6.5388   6.6130   6.6352   6.6627   6.7143   6.7310
     6.7445   6.7744   6.7833   6.8234   6.8787   6.9573   6.9795   7.0508
     7.0587   7.0887   7.1111   7.1492   7.1647   7.1774   7.1915   7.2026
     7.2103   7.2980   7.3197   7.3289   7.3405   7.3639   7.3795   7.3861
     7.4085   7.4281   7.4430   7.4757   7.4957   7.5377   7.5424   7.6150
     7.6192   7.7321   7.8507   7.8586   8.0904   8.0959   9.5638  11.0377
    12.4296  12.5128  12.5419  12.5774  12.6281  12.6736  12.7359  12.9584
    13.0134  13.0546  13.1074  13.2075  13.3104  13.6022  14.0677  14.1039
    14.1506  14.1836  14.2509  14.2944  15.2904  15.3166  15.3602  15.3820
    15.4158  15.4817  15.6981  15.7004  15.9171  15.9268  15.9720  15.9861
    15.9960  16.0537  16.0725  16.1036  16.1529  16.1894  16.1982  16.2146
    16.2583  16.3184  16.3455  16.4049  16.4728  16.5072  16.5377  16.5568
    16.6923  16.8997  16.9238  16.9556  16.9589  16.9714  16.9803  16.9871
    17.0324  17.0565  17.0658  17.0813  17.1225  17.1517  17.2285  17.2393
    17.2589  17.4135  17.7708  17.9956  18.0724  18.1225  18.1745  18.2888
    18.6623  18.7382  18.7763  18.9539  19.0713  19.1195  19.1472  19.1693
    19.1964  19.2237  19.3129  19.4554  19.5416  19.7099

     occupation numbers 
     1.0000   1.0000   1.0000   1.0000   1.0000   1.0000   1.0000   1.0000
     1.0000   1.0000   1.0000   1.0000   1.0000   1.0000   1.0000   1.0000
     1.0000   1.0000   1.0000   1.0000   1.0000   1.0000   1.0000   1.0000
     1.0000   1.0000   1.0000   1.0000   1.0000   1.0000   1.0000   1.0000
     1.0000   1.0000   1.0000   1.0000   1.0000   1.0000   1.0000   1.0000
     1.0000   1.0000   1.0000   1.0000   1.0000   1.0000   1.0000   1.0000
     1.0000   1.0000   1.0000   1.0000   1.0000   1.0000   1.0000   1.0000
     1.0000   1.0000   1.0000   1.0000   1.0000   1.0000   1.0000   1.0000
     1.0000   1.0000   1.0000   1.0000   1.0000   1.0000   1.0000   1.0000
     1.0000   1.0000   1.0000   1.0000   1.0000   1.0000   1.0000   1.0000
     1.0000   1.0000   1.0000   1.0000   1.0000   1.0000   1.0000   1.0000
     1.0000   1.0000   1.0000   1.0000   1.0000   1.0000   1.0000   1.0000
     1.0000   1.0000   1.0000   1.0000   1.0000   1.0000   1.0000   1.0000
     1.0000   1.0000   1.0000   1.0000   1.0000   1.0000   1.0000   1.0000
     1.0000   1.0000   1.0000   1.0000   1.0000   1.0000   1.0000   1.0000
     1.0000   1.0000   1.0000   1.0000   1.0000   1.0000   1.0000   1.0000
     1.0000   1.0000   1.0000   1.0000   1.0000   1.0000   1.0000   1.0000
     1.0000   1.0000   1.0000   1.0000   1.0000   1.0000   1.0000   1.0000
     1.0000   1.0000   1.0000   1.0000   1.0000   1.0000   1.0000   1.0000
     1.0000   1.0000   1.0000   1.0000   1.0000   1.0000   1.0000   1.0000
     1.0000   1.0000   1.0000   1.0000   1.0000   1.0000   1.0000   1.0000
     1.0000   1.0000   1.0000   1.0000   1.0000   1.0000   1.0000   1.0000
     1.0000   1.0000   1.0000   1.0000   1.0000   1.0000   1.0000   1.0000
     1.0000   1.0000   1.0000   1.0000   1.0000   1.0000   1.0000   1.0000
     1.0000   1.0000   1.0000   1.0000   1.0000   1.0000   1.0000   1.0000
     1.0000   1.0000   1.0000   1.0000   1.0000   1.0000   1.0000   1.0000
     1.0000   1.0000   1.0000   1.0000   1.0000   1.0000   1.0000   1.0000
     1.0000   1.0000   1.0000   1.0000   1.0000   1.0000   1.0000   1.0000
     1.0000   1.0000   1.0000   1.0000   1.0000   1.0000   1.0000   1.0000
     1.0000   1.0000   1.0000   1.0000   1.0000   1.0000   1.0000   1.0000
     1.0000   1.0000   1.0000   1.0000   1.0000   1.0000   1.0000   1.0000
     1.0000   1.0000   1.0000   1.0000   1.0000   1.0000   1.0000   1.0000
     1.0000   1.0000   1.0000   1.0000   1.0000   1.0000   1.0000   1.0000
     1.0000   1.0000   1.0000   1.0000   1.0000   1.0000   1.0000   1.0000
     1.0000   1.0000   1.0000   1.0000   1.0000   1.0000   1.0000   1.0000
     1.0000   1.0000   1.0000   1.0000   1.0000   1.0000   1.0000   1.0000
     1.0000   1.0000   1.0000   1.0000   1.0000   1.0000   1.0000   1.0000
     1.0000   1.0000   1.0000   1.0000   1.0000   1.0000   1.0000   1.0000
     1.0000   1.0000   1.0000   1.0000   1.0000   1.0000   1.0000   1.0000
     1.0000   1.0000   1.0000   1.0000   1.0000   1.0000   1.0000   1.0000
     1.0000   1.0000   1.0000   1.0000   1.0000   1.0000   1.0000   1.0000
     1.0000   1.0000   1.0000   1.0000   1.0000   1.0000   1.0000   1.0000
     1.0000   1.0000   1.0000   1.0000   1.0000   1.0000   1.0000   1.0000
     1.0000   1.0000   1.0000   1.0000   1.0000   1.0000   1.0000   1.0000
     1.0000   1.0000   1.0000   1.0000   1.0000   1.0000   1.0000   1.0000
     1.0000   1.0000   1.0000   1.0000   1.0000   1.0000   1.0000   1.0000
     1.0000   1.0000   1.0000   1.0000   1.0000   1.0000   1.0000   1.0000
     1.0000   1.0000   1.0000   1.0000   1.0000   1.0000   1.0000   1.0000
     1.0000   1.0000   1.0000   1.0000   1.0000   1.0000   1.0000   1.0000
     1.0000   1.0000   1.0000   1.0000   1.0000   1.0000   1.0000   1.0000
     1.0000   1.0000   1.0000   1.0000   1.0000   1.0000   1.0000   1.0000
     1.0000   1.0000   1.0000   1.0000   1.0000   1.0000   1.0000   1.0000
     1.0000   1.0000   1.0000   1.0000   1.0000   1.0000   1.0000   1.0000
     1.0000   1.0000   1.0000   1.0000   1.0000   1.0000   1.0000   1.0000
     1.0000   1.0000   1.0000   1.0000   1.0000   1.0000   0.0000   0.0000
     0.0000   0.0000   0.0000   0.0000   0.0000   0.0000   0.0000   0.0000
     0.0000   0.0000   0.0000   0.0000   0.0000   0.0000   0.0000   0.0000
     0.0000   0.0000   0.0000   0.0000   0.0000   0.0000   0.0000   0.0000
     0.0000   0.0000   0.0000   0.0000   0.0000   0.0000   0.0000   0.0000
     0.0000   0.0000   0.0000   0.0000   0.0000   0.0000   0.0000   0.0000
     0.0000   0.0000   0.0000   0.0000   0.0000   0.0000   0.0000   0.0000
     0.0000   0.0000   0.0000   0.0000   0.0000   0.0000   0.0000   0.0000
     0.0000   0.0000   0.0000   0.0000   0.0000   0.0000   0.0000   0.0000
     0.0000   0.0000   0.0000   0.0000   0.0000   0.0000   0.0000   0.0000
     0.0000   0.0000   0.0000   0.0000   0.0000   0.0000   0.0000   0.0000
     0.0000   0.0000   0.0000   0.0000   0.0000   0.0000

          k = 0.0000-0.0000-0.4670 ( 45156 PWs)   bands (ev):

  -114.8814-114.8795-114.8754-114.8748-114.8735-114.8732-114.8728-114.8725
  -114.8718-114.8710-114.8692-114.8687-114.8667-114.8664-114.8662-114.8646
  -114.8643-114.8643-114.8640-114.8634-114.8592-114.8591-114.8584-114.8578
  -114.8577-114.8575-114.8566-114.8566-114.8554-114.8478 -69.2422 -69.2386
   -69.2383 -69.2380 -69.2345 -69.2340 -69.2334 -69.2332 -69.2328 -69.2327
   -69.2325 -69.2323 -69.2321 -69.2319 -69.2317 -69.2311 -69.2308 -69.2303
   -69.2302 -69.2301 -69.2292 -69.2291 -69.2290 -69.2289 -69.2285 -69.2281
   -69.2274 -69.2268 -69.2267 -69.2264 -69.2264 -69.2262 -69.2260 -69.2253
   -69.2250 -69.2247 -69.2243 -69.2241 -69.2239 -69.2239 -69.2232 -69.2230
   -69.2229 -69.2229 -69.2227 -69.2225 -69.2224 -69.2220 -69.2216 -69.2215
   -69.2209 -69.2207 -69.2207 -69.2201 -69.2200 -69.2200 -69.2198 -69.2194
   -69.2191 -69.2188 -69.2185 -69.2185 -69.2181 -69.2176 -69.2174 -69.2172
   -69.2170 -69.2169 -69.2166 -69.2161 -69.2156 -69.2154 -69.2152 -69.2149
   -69.2138 -69.2137 -69.2131 -69.2128 -69.2128 -69.2126 -69.2123 -69.2118
   -69.2115 -69.2112 -69.2099 -69.2092 -69.2088 -69.2085 -69.2046 -69.2009
   -64.3466 -64.3400 -64.3324 -64.3318 -64.3214 -64.3189 -31.3368 -31.3318
   -31.3307 -31.3304 -31.3271 -31.3266 -31.3246 -31.3229 -31.3214 -31.3198
   -31.3172 -31.3142 -31.3125 -31.3069 -31.3062 -31.3058 -31.3026 -31.3000
    -9.6202  -9.5322  -9.2019  -9.1969  -9.1896  -9.1606  -9.1477  -9.1450
    -9.1381  -9.1047  -9.0916  -9.0750  -9.0592  -9.0022  -8.9858  -8.9608
    -8.8971  -8.8852  -8.8726  -8.8631  -8.8474  -8.8391  -8.8295  -8.8062
    -8.7998  -8.7792  -8.7544  -8.7463  -8.7409  -8.7255  -8.7126  -8.7042
    -8.6603  -8.6130  -8.5600  -8.4272   2.1426   2.1526   2.1601   2.1704
     2.1862   2.1906   2.2143   2.2298   2.2502   2.2678   2.2854   2.3154
     2.3632   2.3808   2.3859   2.3972   2.4096   2.4153   2.4336   2.4501
     2.4578   2.4866   2.5119   2.5313   2.5377   2.5437   2.5520   2.5588
     2.5670   2.5788   2.5936   2.6255   2.6427   2.6506   2.6656   2.6784
     2.6920   2.6974   2.7184   2.7202   2.7308   2.7572   2.7608   2.7832
     2.7897   2.7919   2.7964   2.8128   2.8209   2.8366   2.8440   2.8506
     2.8599   2.8707   2.8756   2.8937   2.8953   2.9027   2.9135   2.9201
     2.9245   2.9399   2.9493   2.9554   2.9708   2.9781   2.9849   3.0035
     3.0085   3.0124   3.0180   3.0289   3.0347   3.0403   3.0518   3.0560
     3.0684   3.0758   3.0832   3.0932   3.1075   3.1230   3.1328   3.2091
     3.2361   3.2402   3.2689   3.2753   3.2889   3.3257   3.3585   3.3644
     3.3966   3.4187   3.4381   3.4816   3.4871   3.5301   3.5356   3.5873
     3.6050   3.6179   3.6281   3.6411   3.6571   3.6643   3.6754   3.6981
     3.7114   3.7232   3.7272   3.7302   3.7363   3.7424   3.7466   3.7580
     3.7652   3.7669   3.7723   3.7849   3.7884   3.7959   3.8018   3.8098
     3.8260   3.8290   3.8362   3.8500   3.8630   3.8723   3.8803   3.8812
     3.8906   3.8962   3.8993   3.9030   3.9136   3.9233   3.9280   3.9329
     3.9470   3.9554   3.9597   3.9729   3.9863   3.9936   4.0105   4.0258
     4.0497   4.0519   4.3150   4.3644   4.3778   4.3919   4.4270   4.4531
     4.4648   4.4886   4.4930   4.5441   4.5643   4.6021   4.6213   4.6314
     4.6795   4.6910   4.7007   4.7360   4.7644   4.7885   4.7957   4.8203
     4.8387   4.9035   4.9085   4.9841   5.0393   5.0748   5.0984   5.1894
     5.2086   5.2559   5.2841   5.3192   5.3393   5.3727   5.4120   5.4452
     5.7078   5.7188   5.8176   5.8257   5.8641   5.8866   5.8954   5.9069
     5.9453   5.9685   6.0188   6.0618   6.0768   6.0941   6.1637   6.1741
     6.3213   6.3732   6.3998   6.4126   6.4319   6.4804   6.4890   6.5007
     6.5150   6.5277   6.5348   6.5593   6.5756   6.5802   6.5945   6.5959
     6.6335   6.6432   6.6574   6.6660   6.8639   7.0250   7.0584   7.1210
     7.1369   7.1501   7.1757   7.2487   7.2612   7.2688   7.3005   7.3118
     7.3358   7.3382   7.3656   7.3766   7.3902   7.3945   7.4042   7.4107
     7.4168   7.4300   7.4391   7.4444   7.4521   7.4585   7.4687   7.4903
     7.5321   7.5394   7.9130   7.9197   8.0641   8.0688  10.1832  10.3479
    12.6153  12.6308  12.6328  12.6560  12.6714  12.6799  12.6924  12.7872
    12.8045  12.8217  12.9827  13.0188  13.2234  13.3691  14.6788  14.7042
    14.7142  14.7213  14.7431  14.7542  14.7930  14.8129  14.8386  14.8632
    14.9174  14.9923  15.7579  15.7604  15.8478  15.8530  15.9782  15.9853
    15.9878  16.0747  16.0834  16.1294  16.1377  16.1672  16.1938  16.1980
    16.2816  16.3906  16.6240  16.6330  16.6490  16.6688  16.6708  16.7070
    16.7970  16.8179  16.8362  16.8502  16.8728  16.9218  16.9471  16.9775
    17.0305  17.0350  17.0487  17.0634  17.0707  17.0866  17.2852  17.4551
    17.5340  17.5723  17.6809  17.9204  17.9644  17.9879  18.0542  18.2513
    18.3979  18.4645  18.5792  18.7952  19.0223  19.0694  19.0932  19.1117
    19.1247  19.1625  19.3319  19.4694  19.6823  19.9170

     occupation numbers 
     1.0000   1.0000   1.0000   1.0000   1.0000   1.0000   1.0000   1.0000
     1.0000   1.0000   1.0000   1.0000   1.0000   1.0000   1.0000   1.0000
     1.0000   1.0000   1.0000   1.0000   1.0000   1.0000   1.0000   1.0000
     1.0000   1.0000   1.0000   1.0000   1.0000   1.0000   1.0000   1.0000
     1.0000   1.0000   1.0000   1.0000   1.0000   1.0000   1.0000   1.0000
     1.0000   1.0000   1.0000   1.0000   1.0000   1.0000   1.0000   1.0000
     1.0000   1.0000   1.0000   1.0000   1.0000   1.0000   1.0000   1.0000
     1.0000   1.0000   1.0000   1.0000   1.0000   1.0000   1.0000   1.0000
     1.0000   1.0000   1.0000   1.0000   1.0000   1.0000   1.0000   1.0000
     1.0000   1.0000   1.0000   1.0000   1.0000   1.0000   1.0000   1.0000
     1.0000   1.0000   1.0000   1.0000   1.0000   1.0000   1.0000   1.0000
     1.0000   1.0000   1.0000   1.0000   1.0000   1.0000   1.0000   1.0000
     1.0000   1.0000   1.0000   1.0000   1.0000   1.0000   1.0000   1.0000
     1.0000   1.0000   1.0000   1.0000   1.0000   1.0000   1.0000   1.0000
     1.0000   1.0000   1.0000   1.0000   1.0000   1.0000   1.0000   1.0000
     1.0000   1.0000   1.0000   1.0000   1.0000   1.0000   1.0000   1.0000
     1.0000   1.0000   1.0000   1.0000   1.0000   1.0000   1.0000   1.0000
     1.0000   1.0000   1.0000   1.0000   1.0000   1.0000   1.0000   1.0000
     1.0000   1.0000   1.0000   1.0000   1.0000   1.0000   1.0000   1.0000
     1.0000   1.0000   1.0000   1.0000   1.0000   1.0000   1.0000   1.0000
     1.0000   1.0000   1.0000   1.0000   1.0000   1.0000   1.0000   1.0000
     1.0000   1.0000   1.0000   1.0000   1.0000   1.0000   1.0000   1.0000
     1.0000   1.0000   1.0000   1.0000   1.0000   1.0000   1.0000   1.0000
     1.0000   1.0000   1.0000   1.0000   1.0000   1.0000   1.0000   1.0000
     1.0000   1.0000   1.0000   1.0000   1.0000   1.0000   1.0000   1.0000
     1.0000   1.0000   1.0000   1.0000   1.0000   1.0000   1.0000   1.0000
     1.0000   1.0000   1.0000   1.0000   1.0000   1.0000   1.0000   1.0000
     1.0000   1.0000   1.0000   1.0000   1.0000   1.0000   1.0000   1.0000
     1.0000   1.0000   1.0000   1.0000   1.0000   1.0000   1.0000   1.0000
     1.0000   1.0000   1.0000   1.0000   1.0000   1.0000   1.0000   1.0000
     1.0000   1.0000   1.0000   1.0000   1.0000   1.0000   1.0000   1.0000
     1.0000   1.0000   1.0000   1.0000   1.0000   1.0000   1.0000   1.0000
     1.0000   1.0000   1.0000   1.0000   1.0000   1.0000   1.0000   1.0000
     1.0000   1.0000   1.0000   1.0000   1.0000   1.0000   1.0000   1.0000
     1.0000   1.0000   1.0000   1.0000   1.0000   1.0000   1.0000   1.0000
     1.0000   1.0000   1.0000   1.0000   1.0000   1.0000   1.0000   1.0000
     1.0000   1.0000   1.0000   1.0000   1.0000   1.0000   1.0000   1.0000
     1.0000   1.0000   1.0000   1.0000   1.0000   1.0000   1.0000   1.0000
     1.0000   1.0000   1.0000   1.0000   1.0000   1.0000   1.0000   1.0000
     1.0000   1.0000   1.0000   1.0000   1.0000   1.0000   1.0000   1.0000
     1.0000   1.0000   1.0000   1.0000   1.0000   1.0000   1.0000   1.0000
     1.0000   1.0000   1.0000   1.0000   1.0000   1.0000   1.0000   1.0000
     1.0000   1.0000   1.0000   1.0000   1.0000   1.0000   1.0000   1.0000
     1.0000   1.0000   1.0000   1.0000   1.0000   1.0000   1.0000   1.0000
     1.0000   1.0000   1.0000   1.0000   1.0000   1.0000   1.0000   1.0000
     1.0000   1.0000   1.0000   1.0000   1.0000   1.0000   1.0000   1.0000
     1.0000   1.0000   1.0000   1.0000   1.0000   1.0000   1.0000   1.0000
     1.0000   1.0000   1.0000   1.0000   1.0000   1.0000   1.0000   1.0000
     1.0000   1.0000   1.0000   1.0000   1.0000   1.0000   1.0000   1.0000
     1.0000   1.0000   1.0000   1.0000   1.0000   1.0000   1.0000   1.0000
     1.0000   1.0000   1.0000   1.0000   1.0000   1.0000   1.0000   1.0000
     1.0000   1.0000   1.0000   1.0000   1.0000   1.0000   1.0000   1.0000
     1.0000   1.0000   1.0000   1.0000   1.0000   1.0000   1.0000   1.0000
     1.0000   1.0000   1.0000   1.0000   1.0000   1.0000   1.0000   1.0000
     1.0000   1.0000   1.0000   1.0000   1.0000   1.0000   0.0000   0.0000
     0.0000   0.0000   0.0000   0.0000   0.0000   0.0000   0.0000   0.0000
     0.0000   0.0000   0.0000   0.0000   0.0000   0.0000   0.0000   0.0000
     0.0000   0.0000   0.0000   0.0000   0.0000   0.0000   0.0000   0.0000
     0.0000   0.0000   0.0000   0.0000   0.0000   0.0000   0.0000   0.0000
     0.0000   0.0000   0.0000   0.0000   0.0000   0.0000   0.0000   0.0000
     0.0000   0.0000   0.0000   0.0000   0.0000   0.0000   0.0000   0.0000
     0.0000   0.0000   0.0000   0.0000   0.0000   0.0000   0.0000   0.0000
     0.0000   0.0000   0.0000   0.0000   0.0000   0.0000   0.0000   0.0000
     0.0000   0.0000   0.0000   0.0000   0.0000   0.0000   0.0000   0.0000
     0.0000   0.0000   0.0000   0.0000   0.0000   0.0000   0.0000   0.0000
     0.0000   0.0000   0.0000   0.0000   0.0000   0.0000

          k =-0.0000 0.2887 0.0000 ( 45166 PWs)   bands (ev):

  -114.8814-114.8795-114.8754-114.8748-114.8735-114.8732-114.8728-114.8725
  -114.8718-114.8710-114.8692-114.8687-114.8667-114.8664-114.8662-114.8646
  -114.8643-114.8643-114.8640-114.8634-114.8592-114.8591-114.8584-114.8578
  -114.8577-114.8575-114.8566-114.8566-114.8554-114.8478 -69.2422 -69.2386
   -69.2383 -69.2380 -69.2345 -69.2340 -69.2334 -69.2332 -69.2328 -69.2327
   -69.2325 -69.2323 -69.2321 -69.2319 -69.2317 -69.2311 -69.2308 -69.2303
   -69.2302 -69.2301 -69.2292 -69.2291 -69.2290 -69.2289 -69.2285 -69.2281
   -69.2274 -69.2268 -69.2267 -69.2264 -69.2264 -69.2262 -69.2260 -69.2253
   -69.2250 -69.2247 -69.2243 -69.2241 -69.2240 -69.2239 -69.2232 -69.2230
   -69.2229 -69.2228 -69.2227 -69.2225 -69.2224 -69.2220 -69.2216 -69.2215
   -69.2209 -69.2207 -69.2207 -69.2201 -69.2200 -69.2200 -69.2198 -69.2194
   -69.2191 -69.2188 -69.2185 -69.2185 -69.2181 -69.2176 -69.2174 -69.2172
   -69.2170 -69.2169 -69.2166 -69.2161 -69.2156 -69.2154 -69.2152 -69.2149
   -69.2138 -69.2137 -69.2131 -69.2128 -69.2128 -69.2126 -69.2123 -69.2118
   -69.2115 -69.2112 -69.2099 -69.2092 -69.2088 -69.2085 -69.2046 -69.2009
   -64.3466 -64.3400 -64.3324 -64.3318 -64.3214 -64.3189 -31.3368 -31.3318
   -31.3307 -31.3304 -31.3271 -31.3266 -31.3246 -31.3229 -31.3214 -31.3198
   -31.3172 -31.3142 -31.3125 -31.3069 -31.3062 -31.3058 -31.3026 -31.3000
    -9.6490  -9.3727  -9.3104  -9.2910  -9.2709  -9.2414  -9.1154  -9.1023
    -9.0808  -9.0566  -9.0525  -9.0355  -9.0095  -9.0034  -8.9779  -8.9391
    -8.9101  -8.9063  -8.8884  -8.8816  -8.8687  -8.8505  -8.8429  -8.8293
    -8.8152  -8.7849  -8.7587  -8.7530  -8.7390  -8.7191  -8.7008  -8.6790
    -8.6536  -8.6111  -8.5496  -8.4237   2.1271   2.1352   2.1576   2.1681
     2.1756   2.1965   2.2077   2.2225   2.2380   2.2556   2.2763   2.2900
     2.3067   2.3369   2.3427   2.3629   2.3713   2.3933   2.4063   2.4389
     2.4680   2.4908   2.5186   2.5284   2.5385   2.5633   2.5668   2.5941
     2.6127   2.6205   2.6340   2.6553   2.6611   2.6644   2.6756   2.6860
     2.6965   2.7008   2.7188   2.7252   2.7418   2.7457   2.7679   2.7757
     2.7861   2.7907   2.8000   2.8031   2.8162   2.8271   2.8316   2.8376
     2.8516   2.8596   2.8697   2.8788   2.8824   2.8888   2.9010   2.9064
     2.9097   2.9174   2.9328   2.9424   2.9494   2.9694   2.9928   2.9962
     3.0019   3.0240   3.0320   3.0432   3.0518   3.0598   3.0737   3.0891
     3.1145   3.1187   3.1336   3.1532   3.1632   3.1825   3.2077   3.2277
     3.2500   3.2674   3.2912   3.3114   3.3291   3.3501   3.3631   3.3992
     3.4233   3.4262   3.4660   3.4824   3.4926   3.5171   3.5529   3.5642
     3.5918   3.6148   3.6196   3.6344   3.6381   3.6573   3.6770   3.6926
     3.7085   3.7213   3.7243   3.7380   3.7473   3.7581   3.7634   3.7745
     3.7793   3.7917   3.7992   3.8050   3.8099   3.8201   3.8249   3.8335
     3.8368   3.8397   3.8460   3.8514   3.8554   3.8659   3.8727   3.8793
     3.8843   3.8907   3.8945   3.8987   3.9065   3.9122   3.9216   3.9224
     3.9313   3.9413   3.9639   3.9787   4.0109   4.0247   4.0375   4.0613
     4.0765   4.0813   4.1048   4.1557   4.1975   4.2287   4.2764   4.2916
     4.3243   4.3847   4.3928   4.4468   4.4557   4.5190   4.5285   4.5663
     4.6069   4.6191   4.6806   4.6902   4.7375   4.7708   4.8079   4.8359
     4.8588   4.8909   4.9773   4.9963   5.1594   5.1851   5.2484   5.2787
     5.3425   5.3780   5.4229   5.4524   5.5218   5.5493   5.5832   5.6152
     5.6322   5.6677   5.6973   5.7294   5.7745   5.8286   5.8697   5.9116
     5.9431   5.9914   6.0180   6.0359   6.0923   6.2623   6.3657   6.3754
     6.4123   6.4358   6.4678   6.5118   6.5362   6.5626   6.5947   6.6132
     6.6195   6.6368   6.6684   6.6838   6.7100   6.7196   6.7558   6.7652
     6.7794   6.8294   6.8392   6.8682   6.8825   6.8912   6.9160   6.9319
     6.9509   6.9583   6.9673   6.9788   6.9946   7.0128   7.0256   7.0442
     7.1195   7.1324   7.1463   7.1627   7.2057   7.2444   7.2863   7.3371
     7.3733   7.4209   7.4495   7.4839   7.5267   7.5602   7.6086   7.6247
     7.6441   7.6798   7.7179   7.7347   7.9884   8.0702   9.7058  11.5868
    11.9731  12.0059  12.2196  12.3137  13.0403  13.0842  13.1882  13.2979
    13.3875  13.4303  13.4583  13.4810  13.5861  13.7849  13.8588  13.8703
    13.8865  13.9317  14.0232  14.1760  15.0910  15.1450  15.2363  15.2555
    15.3110  15.3332  15.4256  15.6021  15.6481  15.6579  15.7047  15.7282
    15.7753  15.8323  15.8902  16.0227  16.0582  16.1360  16.1978  16.2608
    16.2857  16.3677  16.3895  16.6035  16.6258  16.7134  16.7190  16.7311
    16.7711  16.8089  16.8319  16.8460  16.9283  17.0770  17.0992  17.1111
    17.1811  17.2499  17.2937  17.3450  17.3974  17.4153  17.4458  17.5057
    17.6646  17.8251  17.9456  18.1798  18.2572  18.2853  18.4446  18.5462
    18.5937  18.8949  18.9250  19.0138  19.0332  19.1036  19.1792  19.2334
    19.2684  19.2820  19.3295  19.3935  19.4077  19.4403

     occupation numbers 
     1.0000   1.0000   1.0000   1.0000   1.0000   1.0000   1.0000   1.0000
     1.0000   1.0000   1.0000   1.0000   1.0000   1.0000   1.0000   1.0000
     1.0000   1.0000   1.0000   1.0000   1.0000   1.0000   1.0000   1.0000
     1.0000   1.0000   1.0000   1.0000   1.0000   1.0000   1.0000   1.0000
     1.0000   1.0000   1.0000   1.0000   1.0000   1.0000   1.0000   1.0000
     1.0000   1.0000   1.0000   1.0000   1.0000   1.0000   1.0000   1.0000
     1.0000   1.0000   1.0000   1.0000   1.0000   1.0000   1.0000   1.0000
     1.0000   1.0000   1.0000   1.0000   1.0000   1.0000   1.0000   1.0000
     1.0000   1.0000   1.0000   1.0000   1.0000   1.0000   1.0000   1.0000
     1.0000   1.0000   1.0000   1.0000   1.0000   1.0000   1.0000   1.0000
     1.0000   1.0000   1.0000   1.0000   1.0000   1.0000   1.0000   1.0000
     1.0000   1.0000   1.0000   1.0000   1.0000   1.0000   1.0000   1.0000
     1.0000   1.0000   1.0000   1.0000   1.0000   1.0000   1.0000   1.0000
     1.0000   1.0000   1.0000   1.0000   1.0000   1.0000   1.0000   1.0000
     1.0000   1.0000   1.0000   1.0000   1.0000   1.0000   1.0000   1.0000
     1.0000   1.0000   1.0000   1.0000   1.0000   1.0000   1.0000   1.0000
     1.0000   1.0000   1.0000   1.0000   1.0000   1.0000   1.0000   1.0000
     1.0000   1.0000   1.0000   1.0000   1.0000   1.0000   1.0000   1.0000
     1.0000   1.0000   1.0000   1.0000   1.0000   1.0000   1.0000   1.0000
     1.0000   1.0000   1.0000   1.0000   1.0000   1.0000   1.0000   1.0000
     1.0000   1.0000   1.0000   1.0000   1.0000   1.0000   1.0000   1.0000
     1.0000   1.0000   1.0000   1.0000   1.0000   1.0000   1.0000   1.0000
     1.0000   1.0000   1.0000   1.0000   1.0000   1.0000   1.0000   1.0000
     1.0000   1.0000   1.0000   1.0000   1.0000   1.0000   1.0000   1.0000
     1.0000   1.0000   1.0000   1.0000   1.0000   1.0000   1.0000   1.0000
     1.0000   1.0000   1.0000   1.0000   1.0000   1.0000   1.0000   1.0000
     1.0000   1.0000   1.0000   1.0000   1.0000   1.0000   1.0000   1.0000
     1.0000   1.0000   1.0000   1.0000   1.0000   1.0000   1.0000   1.0000
     1.0000   1.0000   1.0000   1.0000   1.0000   1.0000   1.0000   1.0000
     1.0000   1.0000   1.0000   1.0000   1.0000   1.0000   1.0000   1.0000
     1.0000   1.0000   1.0000   1.0000   1.0000   1.0000   1.0000   1.0000
     1.0000   1.0000   1.0000   1.0000   1.0000   1.0000   1.0000   1.0000
     1.0000   1.0000   1.0000   1.0000   1.0000   1.0000   1.0000   1.0000
     1.0000   1.0000   1.0000   1.0000   1.0000   1.0000   1.0000   1.0000
     1.0000   1.0000   1.0000   1.0000   1.0000   1.0000   1.0000   1.0000
     1.0000   1.0000   1.0000   1.0000   1.0000   1.0000   1.0000   1.0000
     1.0000   1.0000   1.0000   1.0000   1.0000   1.0000   1.0000   1.0000
     1.0000   1.0000   1.0000   1.0000   1.0000   1.0000   1.0000   1.0000
     1.0000   1.0000   1.0000   1.0000   1.0000   1.0000   1.0000   1.0000
     1.0000   1.0000   1.0000   1.0000   1.0000   1.0000   1.0000   1.0000
     1.0000   1.0000   1.0000   1.0000   1.0000   1.0000   1.0000   1.0000
     1.0000   1.0000   1.0000   1.0000   1.0000   1.0000   1.0000   1.0000
     1.0000   1.0000   1.0000   1.0000   1.0000   1.0000   1.0000   1.0000
     1.0000   1.0000   1.0000   1.0000   1.0000   1.0000   1.0000   1.0000
     1.0000   1.0000   1.0000   1.0000   1.0000   1.0000   1.0000   1.0000
     1.0000   1.0000   1.0000   1.0000   1.0000   1.0000   1.0000   1.0000
     1.0000   1.0000   1.0000   1.0000   1.0000   1.0000   1.0000   1.0000
     1.0000   1.0000   1.0000   1.0000   1.0000   1.0000   1.0000   1.0000
     1.0000   1.0000   1.0000   1.0000   1.0000   1.0000   1.0000   1.0000
     1.0000   1.0000   1.0000   1.0000   1.0000   1.0000   1.0000   1.0000
     1.0000   1.0000   1.0000   1.0000   1.0000   1.0000   1.0000   1.0000
     1.0000   1.0000   1.0000   1.0000   1.0000   1.0000   1.0000   1.0000
     1.0000   1.0000   1.0000   1.0000   1.0000   1.0000   1.0000   1.0000
     1.0000   1.0000   1.0000   1.0000   1.0000   1.0000   1.0000   1.0000
     1.0000   1.0000   1.0000   1.0000   1.0000   1.0000   0.0000   0.0000
     0.0000   0.0000   0.0000   0.0000   0.0000   0.0000   0.0000   0.0000
     0.0000   0.0000   0.0000   0.0000   0.0000   0.0000   0.0000   0.0000
     0.0000   0.0000   0.0000   0.0000   0.0000   0.0000   0.0000   0.0000
     0.0000   0.0000   0.0000   0.0000   0.0000   0.0000   0.0000   0.0000
     0.0000   0.0000   0.0000   0.0000   0.0000   0.0000   0.0000   0.0000
     0.0000   0.0000   0.0000   0.0000   0.0000   0.0000   0.0000   0.0000
     0.0000   0.0000   0.0000   0.0000   0.0000   0.0000   0.0000   0.0000
     0.0000   0.0000   0.0000   0.0000   0.0000   0.0000   0.0000   0.0000
     0.0000   0.0000   0.0000   0.0000   0.0000   0.0000   0.0000   0.0000
     0.0000   0.0000   0.0000   0.0000   0.0000   0.0000   0.0000   0.0000
     0.0000   0.0000   0.0000   0.0000   0.0000   0.0000

          k =-0.0000 0.2887 0.2335 ( 45165 PWs)   bands (ev):

  -114.8814-114.8795-114.8754-114.8748-114.8735-114.8732-114.8728-114.8725
  -114.8718-114.8710-114.8692-114.8687-114.8667-114.8664-114.8662-114.8646
  -114.8643-114.8643-114.8640-114.8634-114.8592-114.8591-114.8584-114.8578
  -114.8577-114.8575-114.8566-114.8566-114.8554-114.8478 -69.2422 -69.2386
   -69.2383 -69.2380 -69.2345 -69.2340 -69.2334 -69.2332 -69.2328 -69.2327
   -69.2325 -69.2323 -69.2321 -69.2319 -69.2317 -69.2311 -69.2308 -69.2303
   -69.2302 -69.2301 -69.2292 -69.2291 -69.2290 -69.2289 -69.2285 -69.2281
   -69.2274 -69.2268 -69.2267 -69.2264 -69.2264 -69.2262 -69.2260 -69.2253
   -69.2250 -69.2247 -69.2243 -69.2241 -69.2240 -69.2239 -69.2232 -69.2230
   -69.2229 -69.2229 -69.2227 -69.2225 -69.2224 -69.2220 -69.2216 -69.2215
   -69.2209 -69.2207 -69.2207 -69.2201 -69.2200 -69.2200 -69.2198 -69.2194
   -69.2191 -69.2188 -69.2185 -69.2185 -69.2181 -69.2176 -69.2174 -69.2172
   -69.2170 -69.2169 -69.2166 -69.2161 -69.2156 -69.2154 -69.2152 -69.2149
   -69.2138 -69.2137 -69.2131 -69.2128 -69.2128 -69.2126 -69.2123 -69.2118
   -69.2115 -69.2112 -69.2099 -69.2092 -69.2088 -69.2085 -69.2046 -69.2009
   -64.3466 -64.3400 -64.3324 -64.3318 -64.3214 -64.3189 -31.3368 -31.3318
   -31.3307 -31.3304 -31.3271 -31.3266 -31.3246 -31.3229 -31.3214 -31.3198
   -31.3172 -31.3142 -31.3125 -31.3069 -31.3062 -31.3058 -31.3026 -31.3000
    -9.6259  -9.4209  -9.3512  -9.2641  -9.2607  -9.1812  -9.1444  -9.1147
    -9.0957  -9.0827  -9.0579  -9.0427  -8.9868  -8.9778  -8.9452  -8.9357
    -8.9258  -8.9065  -8.9033  -8.8818  -8.8660  -8.8482  -8.8332  -8.8218
    -8.8060  -8.7801  -8.7596  -8.7554  -8.7383  -8.7235  -8.7051  -8.6840
    -8.6548  -8.6171  -8.5513  -8.4249   2.1449   2.1626   2.1723   2.1939
     2.1992   2.2091   2.2256   2.2421   2.2547   2.2877   2.2951   2.3071
     2.3217   2.3350   2.3469   2.3698   2.3831   2.4111   2.4190   2.4556
     2.4766   2.4900   2.5234   2.5271   2.5303   2.5491   2.5634   2.5702
     2.5898   2.5998   2.6059   2.6351   2.6468   2.6566   2.6640   2.6758
     2.6887   2.6920   2.7060   2.7265   2.7359   2.7419   2.7505   2.7640
     2.7707   2.7791   2.7946   2.8030   2.8101   2.8196   2.8322   2.8389
     2.8463   2.8506   2.8588   2.8739   2.8835   2.8928   2.8984   2.9119
     2.9162   2.9244   2.9422   2.9477   2.9575   2.9635   2.9847   2.9955
     2.9998   3.0088   3.0237   3.0259   3.0371   3.0452   3.0620   3.0766
     3.0890   3.1132   3.1165   3.1430   3.1508   3.1637   3.1768   3.1852
     3.1995   3.2225   3.2439   3.2648   3.2844   3.3125   3.3650   3.3800
     3.4033   3.4195   3.4629   3.4705   3.5005   3.5187   3.5577   3.5759
     3.5926   3.6076   3.6304   3.6447   3.6610   3.6691   3.6900   3.6972
     3.7041   3.7161   3.7348   3.7393   3.7451   3.7591   3.7629   3.7702
     3.7810   3.7835   3.7950   3.8000   3.8061   3.8098   3.8179   3.8248
     3.8344   3.8369   3.8495   3.8595   3.8711   3.8744   3.8861   3.8903
     3.8930   3.8975   3.9026   3.9045   3.9095   3.9151   3.9186   3.9271
     3.9498   3.9606   3.9696   3.9768   3.9997   4.0104   4.0260   4.0429
     4.0582   4.0765   4.1802   4.2627   4.2836   4.3094   4.3458   4.3624
     4.3789   4.3877   4.4013   4.4669   4.4942   4.5184   4.5478   4.5980
     4.6171   4.6739   4.7053   4.7269   4.7514   4.8275   4.8436   4.8638
     4.8915   4.9195   4.9492   5.0267   5.1073   5.1122   5.1721   5.2504
     5.2859   5.3104   5.3627   5.3968   5.4818   5.4982   5.5642   5.6329
     5.6626   5.6931   5.7468   5.8183   5.9256   5.9573   5.9693   5.9922
     6.0143   6.0389   6.0624   6.0970   6.1540   6.1931   6.2259   6.2666
     6.3151   6.3400   6.3513   6.3853   6.4025   6.4388   6.4654   6.4704
     6.5031   6.5342   6.5520   6.6231   6.6536   6.6786   6.6934   6.7070
     6.7310   6.7447   6.8297   6.8561   6.8860   6.9006   6.9423   6.9674
     7.0319   7.0444   7.0697   7.0847   7.1044   7.1264   7.1375   7.1694
     7.1806   7.2095   7.2167   7.2412   7.2600   7.2846   7.3110   7.3571
     7.3733   7.3813   7.4550   7.4781   7.4991   7.5128   7.5224   7.5495
     7.6327   7.6911   7.7334   7.8037   7.9633   8.0485   9.9554  11.2635
    11.6799  12.2737  12.2769  12.4896  12.7320  12.8713  12.9721  13.2024
    13.2571  13.4001  13.5010  13.5500  13.6302  13.8053  13.8692  14.0829
    14.2043  14.3132  14.3823  14.4553  15.0199  15.0620  15.1078  15.1499
    15.2011  15.3019  15.3561  15.4285  15.4345  15.4585  15.5203  15.5933
    15.7090  15.7174  16.0075  16.1481  16.1705  16.2624  16.3544  16.4531
    16.4650  16.4868  16.5015  16.5390  16.5836  16.6179  16.6919  16.7363
    16.7938  16.8117  16.8510  16.8812  16.9148  17.0286  17.0455  17.1029
    17.2126  17.2526  17.2741  17.3166  17.3430  17.3711  17.4656  17.6457
    17.6715  17.7617  17.9476  18.1029  18.1821  18.2680  18.3767  18.4390
    18.6644  18.7021  18.8398  18.8995  18.9201  19.0352  19.0946  19.1149
    19.2892  19.3455  19.3958  19.4324  19.5744  19.6004

     occupation numbers 
     1.0000   1.0000   1.0000   1.0000   1.0000   1.0000   1.0000   1.0000
     1.0000   1.0000   1.0000   1.0000   1.0000   1.0000   1.0000   1.0000
     1.0000   1.0000   1.0000   1.0000   1.0000   1.0000   1.0000   1.0000
     1.0000   1.0000   1.0000   1.0000   1.0000   1.0000   1.0000   1.0000
     1.0000   1.0000   1.0000   1.0000   1.0000   1.0000   1.0000   1.0000
     1.0000   1.0000   1.0000   1.0000   1.0000   1.0000   1.0000   1.0000
     1.0000   1.0000   1.0000   1.0000   1.0000   1.0000   1.0000   1.0000
     1.0000   1.0000   1.0000   1.0000   1.0000   1.0000   1.0000   1.0000
     1.0000   1.0000   1.0000   1.0000   1.0000   1.0000   1.0000   1.0000
     1.0000   1.0000   1.0000   1.0000   1.0000   1.0000   1.0000   1.0000
     1.0000   1.0000   1.0000   1.0000   1.0000   1.0000   1.0000   1.0000
     1.0000   1.0000   1.0000   1.0000   1.0000   1.0000   1.0000   1.0000
     1.0000   1.0000   1.0000   1.0000   1.0000   1.0000   1.0000   1.0000
     1.0000   1.0000   1.0000   1.0000   1.0000   1.0000   1.0000   1.0000
     1.0000   1.0000   1.0000   1.0000   1.0000   1.0000   1.0000   1.0000
     1.0000   1.0000   1.0000   1.0000   1.0000   1.0000   1.0000   1.0000
     1.0000   1.0000   1.0000   1.0000   1.0000   1.0000   1.0000   1.0000
     1.0000   1.0000   1.0000   1.0000   1.0000   1.0000   1.0000   1.0000
     1.0000   1.0000   1.0000   1.0000   1.0000   1.0000   1.0000   1.0000
     1.0000   1.0000   1.0000   1.0000   1.0000   1.0000   1.0000   1.0000
     1.0000   1.0000   1.0000   1.0000   1.0000   1.0000   1.0000   1.0000
     1.0000   1.0000   1.0000   1.0000   1.0000   1.0000   1.0000   1.0000
     1.0000   1.0000   1.0000   1.0000   1.0000   1.0000   1.0000   1.0000
     1.0000   1.0000   1.0000   1.0000   1.0000   1.0000   1.0000   1.0000
     1.0000   1.0000   1.0000   1.0000   1.0000   1.0000   1.0000   1.0000
     1.0000   1.0000   1.0000   1.0000   1.0000   1.0000   1.0000   1.0000
     1.0000   1.0000   1.0000   1.0000   1.0000   1.0000   1.0000   1.0000
     1.0000   1.0000   1.0000   1.0000   1.0000   1.0000   1.0000   1.0000
     1.0000   1.0000   1.0000   1.0000   1.0000   1.0000   1.0000   1.0000
     1.0000   1.0000   1.0000   1.0000   1.0000   1.0000   1.0000   1.0000
     1.0000   1.0000   1.0000   1.0000   1.0000   1.0000   1.0000   1.0000
     1.0000   1.0000   1.0000   1.0000   1.0000   1.0000   1.0000   1.0000
     1.0000   1.0000   1.0000   1.0000   1.0000   1.0000   1.0000   1.0000
     1.0000   1.0000   1.0000   1.0000   1.0000   1.0000   1.0000   1.0000
     1.0000   1.0000   1.0000   1.0000   1.0000   1.0000   1.0000   1.0000
     1.0000   1.0000   1.0000   1.0000   1.0000   1.0000   1.0000   1.0000
     1.0000   1.0000   1.0000   1.0000   1.0000   1.0000   1.0000   1.0000
     1.0000   1.0000   1.0000   1.0000   1.0000   1.0000   1.0000   1.0000
     1.0000   1.0000   1.0000   1.0000   1.0000   1.0000   1.0000   1.0000
     1.0000   1.0000   1.0000   1.0000   1.0000   1.0000   1.0000   1.0000
     1.0000   1.0000   1.0000   1.0000   1.0000   1.0000   1.0000   1.0000
     1.0000   1.0000   1.0000   1.0000   1.0000   1.0000   1.0000   1.0000
     1.0000   1.0000   1.0000   1.0000   1.0000   1.0000   1.0000   1.0000
     1.0000   1.0000   1.0000   1.0000   1.0000   1.0000   1.0000   1.0000
     1.0000   1.0000   1.0000   1.0000   1.0000   1.0000   1.0000   1.0000
     1.0000   1.0000   1.0000   1.0000   1.0000   1.0000   1.0000   1.0000
     1.0000   1.0000   1.0000   1.0000   1.0000   1.0000   1.0000   1.0000
     1.0000   1.0000   1.0000   1.0000   1.0000   1.0000   1.0000   1.0000
     1.0000   1.0000   1.0000   1.0000   1.0000   1.0000   1.0000   1.0000
     1.0000   1.0000   1.0000   1.0000   1.0000   1.0000   1.0000   1.0000
     1.0000   1.0000   1.0000   1.0000   1.0000   1.0000   1.0000   1.0000
     1.0000   1.0000   1.0000   1.0000   1.0000   1.0000   1.0000   1.0000
     1.0000   1.0000   1.0000   1.0000   1.0000   1.0000   1.0000   1.0000
     1.0000   1.0000   1.0000   1.0000   1.0000   1.0000   1.0000   1.0000
     1.0000   1.0000   1.0000   1.0000   1.0000   1.0000   0.0000   0.0000
     0.0000   0.0000   0.0000   0.0000   0.0000   0.0000   0.0000   0.0000
     0.0000   0.0000   0.0000   0.0000   0.0000   0.0000   0.0000   0.0000
     0.0000   0.0000   0.0000   0.0000   0.0000   0.0000   0.0000   0.0000
     0.0000   0.0000   0.0000   0.0000   0.0000   0.0000   0.0000   0.0000
     0.0000   0.0000   0.0000   0.0000   0.0000   0.0000   0.0000   0.0000
     0.0000   0.0000   0.0000   0.0000   0.0000   0.0000   0.0000   0.0000
     0.0000   0.0000   0.0000   0.0000   0.0000   0.0000   0.0000   0.0000
     0.0000   0.0000   0.0000   0.0000   0.0000   0.0000   0.0000   0.0000
     0.0000   0.0000   0.0000   0.0000   0.0000   0.0000   0.0000   0.0000
     0.0000   0.0000   0.0000   0.0000   0.0000   0.0000   0.0000   0.0000
     0.0000   0.0000   0.0000   0.0000   0.0000   0.0000

          k = 0.0000 0.2887-0.4670 ( 45186 PWs)   bands (ev):

  -114.8814-114.8795-114.8754-114.8748-114.8735-114.8732-114.8728-114.8725
  -114.8718-114.8710-114.8692-114.8687-114.8667-114.8664-114.8662-114.8646
  -114.8643-114.8643-114.8640-114.8634-114.8592-114.8591-114.8584-114.8578
  -114.8577-114.8575-114.8566-114.8566-114.8554-114.8478 -69.2422 -69.2386
   -69.2383 -69.2380 -69.2345 -69.2340 -69.2334 -69.2332 -69.2328 -69.2327
   -69.2325 -69.2323 -69.2321 -69.2319 -69.2317 -69.2311 -69.2308 -69.2303
   -69.2302 -69.2301 -69.2292 -69.2291 -69.2290 -69.2289 -69.2285 -69.2281
   -69.2274 -69.2268 -69.2267 -69.2264 -69.2264 -69.2262 -69.2260 -69.2253
   -69.2250 -69.2247 -69.2243 -69.2241 -69.2239 -69.2239 -69.2232 -69.2230
   -69.2229 -69.2229 -69.2227 -69.2225 -69.2224 -69.2220 -69.2216 -69.2215
   -69.2209 -69.2207 -69.2207 -69.2201 -69.2200 -69.2200 -69.2198 -69.2194
   -69.2191 -69.2188 -69.2185 -69.2185 -69.2181 -69.2176 -69.2174 -69.2172
   -69.2170 -69.2169 -69.2166 -69.2161 -69.2156 -69.2154 -69.2152 -69.2149
   -69.2138 -69.2137 -69.2131 -69.2128 -69.2128 -69.2126 -69.2123 -69.2118
   -69.2115 -69.2112 -69.2099 -69.2092 -69.2088 -69.2085 -69.2046 -69.2009
   -64.3466 -64.3400 -64.3324 -64.3318 -64.3214 -64.3189 -31.3368 -31.3318
   -31.3307 -31.3304 -31.3271 -31.3266 -31.3246 -31.3229 -31.3214 -31.3198
   -31.3172 -31.3142 -31.3125 -31.3069 -31.3062 -31.3058 -31.3026 -31.3000
[...]
     atom   35 type  3   force =     0.00000000    0.00000000    0.00000000
     atom   36 type  3   force =     0.00000000    0.00000000    0.00000000
     atom   37 type  2   force =    -0.00001305   -0.00156890   -0.00049853
     atom   38 type  2   force =    -0.00000934   -0.00006027   -0.00004245
     atom   39 type  2   force =     0.00000850   -0.00154966   -0.00056208
     atom   40 type  2   force =    -0.00002141   -0.00001322    0.00005170
     atom   41 type  2   force =     0.00000067    0.00002375    0.00005925
     atom   42 type  2   force =     0.00003250    0.00002734    0.00006802
     atom   43 type  2   force =    -0.00133571    0.00076575   -0.00048183
     atom   44 type  2   force =     0.00131850    0.00077262   -0.00047267
     atom   45 type  2   force =     0.00001901    0.00162914   -0.00113761
     atom   46 type  2   force =    -0.00002942   -0.00002127    0.00000917
     atom   47 type  2   force =     0.00002477   -0.00155562   -0.00051858
     atom   48 type  2   force =     0.00000541   -0.00004784    0.00161873
     atom   49 type  2   force =     0.00000402   -0.00001809    0.00162836
     atom   50 type  2   force =     0.00002051    0.00003303    0.00005708
     atom   51 type  2   force =    -0.00002291    0.00000466    0.00008096
     atom   52 type  2   force =     0.00132858    0.00078598   -0.00052581
     atom   53 type  2   force =    -0.00130892    0.00079493   -0.00050473
     atom   54 type  2   force =    -0.00002704    0.00002419    0.00164620
     atom   55 type  2   force =    -0.00001628   -0.00000267    0.00007244
     atom   56 type  2   force =     0.00006158   -0.00002539    0.00009031
     atom   57 type  2   force =    -0.00004830   -0.00003406    0.00004836
     atom   58 type  2   force =    -0.00000088   -0.00000298    0.00007093
     atom   59 type  2   force =    -0.00000005   -0.00001345    0.00005705
     atom   60 type  2   force =    -0.00000006   -0.00001138    0.00003289
     atom   61 type  2   force =     0.00002529    0.00000186   -0.00002133
     atom   62 type  2   force =    -0.00000782    0.00006934    0.00175286
     atom   63 type  2   force =    -0.00001342    0.00001610   -0.00005381
     atom   64 type  2   force =    -0.00138263    0.00079507   -0.00115111
     atom   65 type  2   force =    -0.00010103   -0.00003191    0.00004959
     atom   66 type  2   force =     0.00138714   -0.00081658   -0.00051720
     atom   67 type  2   force =     0.00136837   -0.00076687   -0.00060125
     atom   68 type  2   force =    -0.00134820   -0.00074586   -0.00055126
     atom   69 type  2   force =    -0.00001077    0.00161122   -0.00047975
     atom   70 type  2   force =    -0.00144916   -0.00078911    0.00116370
     atom   71 type  2   force =     0.00003096   -0.00005009   -0.00011724
     atom   72 type  2   force =     0.00148653    0.00083557    0.00063189
     The Hubbard contrib.    to forces
     atom    1 type  1   force =     0.00000000    0.00000000    0.00000000
     atom    2 type  1   force =     0.00000000    0.00000000    0.00000000
     atom    3 type  1   force =     0.00000000    0.00000000    0.00000000
     atom    4 type  1   force =     0.00000000    0.00000000    0.00000000
     atom    5 type  1   force =     0.00000000    0.00000000    0.00000000
     atom    6 type  1   force =     0.00000000    0.00000000    0.00000000
     atom    7 type  1   force =     0.00000000    0.00000000    0.00000000
     atom    8 type  1   force =     0.00000000    0.00000000    0.00000000
     atom    9 type  1   force =     0.00000000    0.00000000    0.00000000
     atom   10 type  1   force =     0.00000000    0.00000000    0.00000000
     atom   11 type  1   force =     0.00000000    0.00000000    0.00000000
     atom   12 type  1   force =     0.00000000    0.00000000    0.00000000
     atom   13 type  1   force =     0.00000000    0.00000000    0.00000000
     atom   14 type  1   force =     0.00000000    0.00000000    0.00000000
     atom   15 type  1   force =     0.00000000    0.00000000    0.00000000
     atom   16 type  1   force =     0.00000000    0.00000000    0.00000000
     atom   17 type  1   force =     0.00000000    0.00000000    0.00000000
     atom   18 type  1   force =     0.00000000    0.00000000    0.00000000
     atom   19 type  1   force =     0.00000000    0.00000000    0.00000000
     atom   20 type  1   force =     0.00000000    0.00000000    0.00000000
     atom   21 type  1   force =     0.00000000    0.00000000    0.00000000
     atom   22 type  1   force =     0.00000000    0.00000000    0.00000000
     atom   23 type  1   force =     0.00000000    0.00000000    0.00000000
     atom   24 type  1   force =     0.00000000    0.00000000    0.00000000
     atom   25 type  1   force =     0.00000000    0.00000000    0.00000000
     atom   26 type  1   force =     0.00000000    0.00000000    0.00000000
     atom   27 type  1   force =     0.00000000    0.00000000    0.00000000
     atom   28 type  1   force =     0.00000000    0.00000000    0.00000000
     atom   29 type  1   force =     0.00000000    0.00000000    0.00000000
     atom   30 type  1   force =     0.00000000    0.00000000    0.00000000
     atom   31 type  3   force =     0.00000000    0.00000000    0.00000000
     atom   32 type  3   force =     0.00000000    0.00000000    0.00000000
     atom   33 type  3   force =     0.00000000    0.00000000    0.00000000
     atom   34 type  3   force =     0.00000000    0.00000000    0.00000000
     atom   35 type  3   force =     0.00000000    0.00000000    0.00000000
     atom   36 type  3   force =     0.00000000    0.00000000    0.00000000
     atom   37 type  2   force =     0.00000000    0.00000000    0.00000000
     atom   38 type  2   force =     0.00000000    0.00000000    0.00000000
     atom   39 type  2   force =     0.00000000    0.00000000    0.00000000
     atom   40 type  2   force =     0.00000000    0.00000000    0.00000000
     atom   41 type  2   force =     0.00000000    0.00000000    0.00000000
     atom   42 type  2   force =     0.00000000    0.00000000    0.00000000
     atom   43 type  2   force =     0.00000000    0.00000000    0.00000000
     atom   44 type  2   force =     0.00000000    0.00000000    0.00000000
     atom   45 type  2   force =     0.00000000    0.00000000    0.00000000
     atom   46 type  2   force =     0.00000000    0.00000000    0.00000000
     atom   47 type  2   force =     0.00000000    0.00000000    0.00000000
     atom   48 type  2   force =     0.00000000    0.00000000    0.00000000
     atom   49 type  2   force =     0.00000000    0.00000000    0.00000000
     atom   50 type  2   force =     0.00000000    0.00000000    0.00000000
     atom   51 type  2   force =     0.00000000    0.00000000    0.00000000
     atom   52 type  2   force =     0.00000000    0.00000000    0.00000000
     atom   53 type  2   force =     0.00000000    0.00000000    0.00000000
     atom   54 type  2   force =     0.00000000    0.00000000    0.00000000
     atom   55 type  2   force =     0.00000000    0.00000000    0.00000000
     atom   56 type  2   force =     0.00000000    0.00000000    0.00000000
     atom   57 type  2   force =     0.00000000    0.00000000    0.00000000
     atom   58 type  2   force =     0.00000000    0.00000000    0.00000000
     atom   59 type  2   force =     0.00000000    0.00000000    0.00000000
     atom   60 type  2   force =     0.00000000    0.00000000    0.00000000
     atom   61 type  2   force =     0.00000000    0.00000000    0.00000000
     atom   62 type  2   force =     0.00000000    0.00000000    0.00000000
     atom   63 type  2   force =     0.00000000    0.00000000    0.00000000
     atom   64 type  2   force =     0.00000000    0.00000000    0.00000000
     atom   65 type  2   force =     0.00000000    0.00000000    0.00000000
     atom   66 type  2   force =     0.00000000    0.00000000    0.00000000
     atom   67 type  2   force =     0.00000000    0.00000000    0.00000000
     atom   68 type  2   force =     0.00000000    0.00000000    0.00000000
     atom   69 type  2   force =     0.00000000    0.00000000    0.00000000
     atom   70 type  2   force =     0.00000000    0.00000000    0.00000000
     atom   71 type  2   force =     0.00000000    0.00000000    0.00000000
     atom   72 type  2   force =     0.00000000    0.00000000    0.00000000
     The SCF correction term to forces
     atom    1 type  1   force =    -0.00000829   -0.00002005   -0.00000858
     atom    2 type  1   force =     0.00000892   -0.00000523    0.00000581
     atom    3 type  1   force =    -0.00000069   -0.00000677   -0.00000883
     atom    4 type  1   force =    -0.00001693    0.00002152   -0.00001289
     atom    5 type  1   force =    -0.00001352    0.00002050   -0.00000735
     atom    6 type  1   force =     0.00003131    0.00001884   -0.00000731
     atom    7 type  1   force =    -0.00001863   -0.00002233    0.00001233
     atom    8 type  1   force =     0.00000763   -0.00001135    0.00001782
     atom    9 type  1   force =     0.00000977    0.00001511   -0.00001007
     atom   10 type  1   force =    -0.00003334   -0.00001880   -0.00001224
     atom   11 type  1   force =     0.00000996   -0.00008294   -0.00000370
     atom   12 type  1   force =    -0.00000936   -0.00000009   -0.00001710
     atom   13 type  1   force =     0.00005309    0.00000571   -0.00000731
     atom   14 type  1   force =     0.00004394    0.00000866    0.00001230
     atom   15 type  1   force =    -0.00007955    0.00003431   -0.00000710
     atom   16 type  1   force =     0.00000058   -0.00002913    0.00009374
     atom   17 type  1   force =    -0.00002819   -0.00005251    0.00004042
     atom   18 type  1   force =     0.00002020   -0.00004089    0.00004671
     atom   19 type  1   force =     0.00001933    0.00001666    0.00003729
     atom   20 type  1   force =    -0.00002345    0.00001589    0.00004616
     atom   21 type  1   force =     0.00000279    0.00001121    0.00005806
     atom   22 type  1   force =     0.00001770    0.00003928    0.00008641
     atom   23 type  1   force =    -0.00001519    0.00003422    0.00009895
     atom   24 type  1   force =    -0.00003091   -0.00004325   -0.00007272
     atom   25 type  1   force =    -0.00000141   -0.00003089   -0.00006295
     atom   26 type  1   force =     0.00003171   -0.00004532   -0.00005784
     atom   27 type  1   force =     0.00000464   -0.00000917   -0.00005544
     atom   28 type  1   force =    -0.00001056   -0.00000567   -0.00004623
     atom   29 type  1   force =     0.00000736    0.00005668   -0.00006193
     atom   30 type  1   force =     0.00000424    0.00003359   -0.00009208
     atom   31 type  3   force =     0.00000995    0.00002115    0.00000273
     atom   32 type  3   force =    -0.00002252   -0.00000579    0.00000420
     atom   33 type  3   force =     0.00002125    0.00000736    0.00002511
     atom   34 type  3   force =    -0.00000159    0.00000143    0.00003259
     atom   35 type  3   force =    -0.00003190   -0.00000011   -0.00002737
     atom   36 type  3   force =     0.00003175    0.00002059   -0.00001107
     atom   37 type  2   force =    -0.00000207   -0.00000629   -0.00001207
     atom   38 type  2   force =     0.00000251   -0.00000391   -0.00000710
     atom   39 type  2   force =    -0.00000065   -0.00000570   -0.00001207
     atom   40 type  2   force =    -0.00000250    0.00000022   -0.00000864
     atom   41 type  2   force =     0.00000132    0.00000214   -0.00000703
     atom   42 type  2   force =     0.00000140    0.00000170   -0.00000736
     atom   43 type  2   force =    -0.00000130   -0.00000040   -0.00000914
     atom   44 type  2   force =     0.00000023    0.00000305   -0.00000982
     atom   45 type  2   force =     0.00000126    0.00000547   -0.00001603
     atom   46 type  2   force =     0.00000211   -0.00000559    0.00000853
     atom   47 type  2   force =    -0.00000182   -0.00001170    0.00000975
     atom   48 type  2   force =     0.00000126   -0.00000322    0.00001575
     atom   49 type  2   force =    -0.00000257    0.00000062    0.00001553
     atom   50 type  2   force =    -0.00000086   -0.00000172    0.00000717
     atom   51 type  2   force =     0.00000293    0.00000181    0.00000653
     atom   52 type  2   force =     0.00000336    0.00000639    0.00000974
     atom   53 type  2   force =    -0.00000672    0.00000768    0.00000737
     atom   54 type  2   force =     0.00000306    0.00000575    0.00001511
     atom   55 type  2   force =    -0.00000375    0.00000123   -0.00000324
     atom   56 type  2   force =    -0.00000286   -0.00000028   -0.00000336
     atom   57 type  2   force =     0.00000658    0.00000023   -0.00000517
     atom   58 type  2   force =     0.00000044   -0.00000093   -0.00000802
     atom   59 type  2   force =    -0.00000294    0.00000046   -0.00000718
     atom   60 type  2   force =     0.00000231    0.00000507   -0.00000574
     atom   61 type  2   force =    -0.00000234   -0.00000337   -0.00000470
     atom   62 type  2   force =    -0.00000017   -0.00000333   -0.00000169
     atom   63 type  2   force =     0.00000252    0.00000116   -0.00000354
     atom   64 type  2   force =    -0.00000797    0.00000022    0.00000274
     atom   65 type  2   force =     0.00000200   -0.00000481    0.00000177
     atom   66 type  2   force =     0.00000521   -0.00000272    0.00000369
     atom   67 type  2   force =     0.00000325   -0.00000241    0.00000591
     atom   68 type  2   force =    -0.00000589   -0.00000168    0.00000557
     atom   69 type  2   force =     0.00000483    0.00000560    0.00000299
     atom   70 type  2   force =    -0.00000388   -0.00000314    0.00000684
     atom   71 type  2   force =    -0.00000165    0.00000297    0.00000211
     atom   72 type  2   force =     0.00000739    0.00000515    0.00000754

     Total force =     0.000136     Total SCF correction =     0.000357
     SCF correction compared to forces is large: reduce conv_thr to get better values


     Computing stress (Cartesian axis) and pressure

          total   stress  (Ry/bohr**3)                   (kbar)     P=   -0.04
  -0.00000024  -0.00000000  -0.00000000         -0.04     -0.00     -0.00
  -0.00000000  -0.00000024  -0.00000000         -0.00     -0.04     -0.00
  -0.00000000  -0.00000000  -0.00000025         -0.00     -0.00     -0.04

     kinetic stress (kbar)  31325.57     -0.07     -0.06
                               -0.07  31325.63     -0.02
                               -0.06     -0.02  31357.15

     local   stress (kbar)  -8649.40     -9.21   -449.47
                               -9.21  -7940.79    361.57
                             -449.47    361.57  -9787.58

     nonloc. stress (kbar)   -520.00      0.03      0.03
                                0.03   -520.01      0.05
                                0.03      0.05   -533.56

     hartree stress (kbar)  58587.71      4.74    220.62
                                4.74  58236.11   -177.92
                              220.62   -177.92  59091.70

     exc-cor stress (kbar) -12889.60      0.00      0.00
                                0.00 -12889.60     -0.00
                                0.00     -0.00 -12889.76

     corecor stress (kbar)   -248.57      0.00      0.00
                                0.00   -248.57     -0.00
                                0.00     -0.00   -248.60

     ewald   stress (kbar) -67605.75      4.51    228.88
                                4.51 -67962.80   -183.69
                              228.88   -183.69 -66989.38

     hubbard stress (kbar)      0.00      0.00      0.00
                                0.00      0.00      0.00
                                0.00      0.00      0.00

     london  stress (kbar)      0.00      0.00      0.00
                                0.00      0.00      0.00
                                0.00      0.00      0.00

     DFT-D3  stress (kbar)      0.00      0.00      0.00
                                0.00      0.00      0.00
                                0.00      0.00      0.00

     XDM     stress (kbar)      0.00      0.00      0.00
                                0.00      0.00      0.00
                                0.00      0.00      0.00

     dft-nl  stress (kbar)      0.00      0.00      0.00
                                0.00      0.00      0.00
                                0.00      0.00      0.00

     TS-vdW  stress (kbar)      0.00      0.00      0.00
                                0.00      0.00      0.00
                                0.00      0.00      0.00



     Writing output data file ZnO.save/
 
     init_run     :     15.74s CPU     20.11s WALL (       1 calls)
     electrons    :    739.27s CPU    754.74s WALL (       1 calls)
     forces       :     10.31s CPU     10.60s WALL (       1 calls)
     stress       :    150.57s CPU    151.29s WALL (       1 calls)

     Called by init_run:
     wfcinit      :     13.47s CPU     16.67s WALL (       1 calls)
     wfcinit:atom :      0.10s CPU      0.13s WALL (       5 calls)
     wfcinit:wfcr :     12.95s CPU     16.07s WALL (       5 calls)
     potinit      :      1.02s CPU      1.36s WALL (       1 calls)
     hinit0       :      0.78s CPU      1.20s WALL (       1 calls)

     Called by electrons:
     c_bands      :    684.23s CPU    697.99s WALL (      12 calls)
     sum_band     :     48.17s CPU     49.01s WALL (      12 calls)
     v_of_rho     :      5.55s CPU      6.16s WALL (      13 calls)
     v_h          :      0.14s CPU      0.19s WALL (      13 calls)
     v_xc         :      6.23s CPU      6.82s WALL (      15 calls)
     newd         :      1.19s CPU      1.45s WALL (      13 calls)
     mix_rho      :      0.32s CPU      0.56s WALL (      12 calls)

     Called by c_bands:
     init_us_2    :      4.43s CPU      4.46s WALL (     135 calls)
     cegterg      :    643.84s CPU    657.30s WALL (      60 calls)

     Called by sum_band:
     sum_band:bec :      0.26s CPU      0.27s WALL (      60 calls)
     addusdens    :      1.08s CPU      1.15s WALL (      12 calls)

     Called by *egterg:
     h_psi        :    210.79s CPU    214.17s WALL (     236 calls)
     s_psi        :     53.13s CPU     53.17s WALL (     236 calls)
     g_psi        :      0.75s CPU      0.75s WALL (     171 calls)
     cdiaghg      :    243.81s CPU    252.58s WALL (     231 calls)
     cegterg:over :     61.85s CPU     63.33s WALL (     171 calls)
     cegterg:upda :     41.97s CPU     42.39s WALL (     171 calls)
     cegterg:last :     23.29s CPU     23.34s WALL (      60 calls)
     cdiaghg:chol :     11.17s CPU     12.88s WALL (     231 calls)
     cdiaghg:inve :      3.42s CPU      3.47s WALL (     231 calls)
     cdiaghg:para :     56.40s CPU     61.18s WALL (     462 calls)

     Called by h_psi:
     h_psi:pot    :    209.04s CPU    211.26s WALL (     236 calls)
     h_psi:calbec :     53.94s CPU     55.48s WALL (     236 calls)
     vloc_psi     :    101.45s CPU    101.92s WALL (     236 calls)
     add_vuspsi   :     53.65s CPU     53.86s WALL (     236 calls)

     General routines
     calbec       :     84.72s CPU     87.05s WALL (     321 calls)
     fft          :      1.28s CPU      2.12s WALL (     192 calls)
     ffts         :      0.06s CPU      0.07s WALL (      25 calls)
     fftw         :    116.66s CPU    117.21s WALL (  186138 calls)
     interpolate  :      0.15s CPU      0.20s WALL (      13 calls)
 
     Parallel routines
     fft_scatt_xy :     19.62s CPU     19.71s WALL (  186355 calls)
     fft_scatt_yz :     30.07s CPU     30.80s WALL (  186355 calls)
 
     PWSCF        :  15m21.67s CPU  15m46.77s WALL

 
   This run was terminated on:  16:31:24   8Nov2021            

=------------------------------------------------------------------------------=
   JOB DONE.
=------------------------------------------------------------------------------=
