
     Program PWSCF v.6.4.1 starts on 15Jun2022 at 23:25:30 

     This program is part of the open-source Quantum ESPRESSO suite
     for quantum simulation of materials; please cite
         "P. Giannozzi et al., J. Phys.:Condens. Matter 21 395502 (2009);
         "P. Giannozzi et al., J. Phys.:Condens. Matter 29 465901 (2017);
          URL http://www.quantum-espresso.org", 
     in publications or presentations arising from this work. More details at
     http://www.quantum-espresso.org/quote

     Parallel version (MPI), running on    64 processors

     MPI processes distributed on     1 nodes
     K-points division:     npool     =       4
     R & G space division:  proc/nbgrp/npool/nimage =      16
     Waiting for input...
     Reading input from standard input
Warning: card &IONS ignored
Warning: card   UPSCALE           = 100.D0, ignored
Warning: card / ignored
Warning: card &CELL ignored
Warning: card   CELL_DYNAMICS     = 'BFGS' ignored
Warning: card   PRESS_CONV_THR    = 0.5D0 ignored
Warning: card   CELL_DOFREE = 'ALL' ignored
Warning: card / ignored

     Current dimensions of program PWSCF are:
     Max number of different atomic species (ntypx) = 10
     Max number of k-points (npk) =  40000
     Max angular momentum in pseudopotentials (lmaxx) =  3

     Subspace diagonalization in iterative solution of the eigenvalue problem:
     one sub-group per band group will be used
     scalapack distributed-memory algorithm (size of sub-group:  2*  2 procs)

     Message from routine set_sym_bl:
     NOTICE: Symmetry group for Bravais lattice is not a group (12) - symmetries are disabled
 
     Parallelization info
     --------------------
     sticks:   dense  smooth     PW     G-vecs:    dense   smooth      PW
     Min         109      58     18                 4733     1838     318
     Max         111      59     19                 4735     1840     321
     Sum        1759     931    295                75743    29417    5109
 


     bravais-lattice index     =            0
     lattice parameter (alat)  =       6.5002  a.u.
     unit-cell volume          =     304.8230 (a.u.)^3
     number of atoms/cell      =            4
     number of atomic types    =            3
     number of electrons       =        42.00
     number of Kohn-Sham states=           21
     kinetic-energy cutoff     =      80.0000  Ry
     charge density cutoff     =     600.0000  Ry
     convergence threshold     =      1.0E-06
     mixing beta               =       0.5000
     number of iterations used =            8  plain     mixing
     Exchange-correlation      = SLA  PW   PSX  PSC ( 1  4 10  8 0 0)
     Using LIBXC version       =    4   3   4

     celldm(1)=   6.500158  celldm(2)=   0.000000  celldm(3)=   0.000000
     celldm(4)=   0.000000  celldm(5)=   0.000000  celldm(6)=   0.000000

     crystal axes: (cart. coord. in units of alat)
               a(1) = (   1.000000   0.000000   0.000000 )  
               a(2) = (  -0.500000   0.866025   0.000000 )  
               a(3) = (   0.000000   0.000001   1.281579 )  

     reciprocal axes: (cart. coord. in units 2 pi/alat)
               b(1) = (  1.000000  0.577350 -0.000000 )  
               b(2) = ( -0.000000  1.154701 -0.000000 )  
               b(3) = ( -0.000000 -0.000000  0.780287 )  


     PseudoPot. # 1 for Mg read from file:
     ./GBRV_PBEsol/mg_pbesol_v1.4.uspp.F.UPF
     MD5 check sum: 4059f37963cf5867752dbf5ab2400678
     Pseudo is Ultrasoft, Zval = 10.0
     Generated by new atomic code, or converted to UPF format
     Using radial grid of  821 points,  7 beta functions with: 
                l(1) =   0
                l(2) =   0
                l(3) =   0
                l(4) =   1
                l(5) =   1
                l(6) =   2
                l(7) =   2
     Q(r) pseudized with  8 coefficients,  rinner =    1.200   1.200   1.200
                                                       1.200   1.200

     PseudoPot. # 2 for Zn read from file:
     ./GBRV_PBEsol/zn_pbesol_v1.uspp.F.UPF
     MD5 check sum: 7d8615e52efe7c1e2b1899de8658bae2
     Pseudo is Ultrasoft, Zval = 20.0
     Generated by new atomic code, or converted to UPF format
     Using radial grid of  943 points,  6 beta functions with: 
                l(1) =   0
                l(2) =   0
                l(3) =   1
                l(4) =   1
                l(5) =   2
                l(6) =   2
     Q(r) pseudized with  8 coefficients,  rinner =    1.100   1.100   1.100
                                                       1.100   1.100

     PseudoPot. # 3 for O  read from file:
     ./GBRV_PBEsol/o_pbesol_v1.2.uspp.F.UPF
     MD5 check sum: 501638753501ef6325af9037351f7734
     Pseudo is Ultrasoft + core correction, Zval =  6.0
     Generated by new atomic code, or converted to UPF format
     Using radial grid of  737 points,  5 beta functions with: 
                l(1) =   0
                l(2) =   0
                l(3) =   1
                l(4) =   1
                l(5) =   2
     Q(r) pseudized with  8 coefficients,  rinner =    0.900   0.900   0.900
                                                       0.900   0.900

     atomic species   valence    mass     pseudopotential
        Mg            10.00    24.30500     Mg( 1.00)
        Zn            20.00    65.38000     Zn( 1.00)
        O              6.00    15.99900     O ( 1.00)

     No symmetry found


                                    s                        frac. trans.

      isym =  1     identity                                     

 cryst.   s( 1) = (     1          0          0      )
                  (     0          1          0      )
                  (     0          0          1      )

 cart.    s( 1) = (  1.0000000  0.0000000  0.0000000 )
                  (  0.0000000  1.0000000  0.0000000 )
                  (  0.0000000  0.0000000  1.0000000 )


   Cartesian axes

     site n.     atom                  positions (alat units)
         1           O   tau(   1) = (   0.5000002   0.2886755   0.0094144  )
         2           O   tau(   2) = (   0.0000003   0.5773496   0.6502040  )
         3           Zn  tau(   3) = (   0.5000001   0.2886750   0.6074609  )
         4           Mg  tau(   4) = (   0.0000001   0.5773516   1.2524601  )

   Crystallographic axes

     site n.     atom                  positions (cryst. coord.)
         1           O   tau(   1) = (  0.6666670  0.3333337  0.0073459  )
         2           O   tau(   2) = (  0.3333329  0.6666657  0.5073458  )
         3           Zn  tau(   3) = (  0.6666664  0.3333329  0.4739939  )
         4           Mg  tau(   4) = (  0.3333337  0.6666677  0.9772785  )

     number of k points=   260
                       cart. coord. in units 2pi/alat
        k(    1) = (   0.0000000   0.0000000   0.0000000), wk =   0.0039062
        k(    2) = (  -0.0000000  -0.0000000   0.0975359), wk =   0.0078125
        k(    3) = (  -0.0000000  -0.0000000   0.1950718), wk =   0.0078125
        k(    4) = (  -0.0000000  -0.0000001   0.2926077), wk =   0.0078125
        k(    5) = (   0.0000000   0.0000001  -0.3901436), wk =   0.0039062
        k(    6) = (  -0.0000000   0.1443376  -0.0000001), wk =   0.0078125
        k(    7) = (  -0.0000000   0.1443376   0.0975358), wk =   0.0078125
        k(    8) = (  -0.0000000   0.1443376   0.1950717), wk =   0.0078125
        k(    9) = (  -0.0000000   0.1443375   0.2926076), wk =   0.0078125
        k(   10) = (   0.0000000   0.1443377  -0.3901437), wk =   0.0078125
        k(   11) = (   0.0000000   0.1443376  -0.2926078), wk =   0.0078125
        k(   12) = (   0.0000000   0.1443376  -0.1950719), wk =   0.0078125
        k(   13) = (  -0.0000000   0.1443376  -0.0975360), wk =   0.0078125
        k(   14) = (  -0.0000000   0.2886752  -0.0000001), wk =   0.0078125
        k(   15) = (  -0.0000000   0.2886752   0.0975358), wk =   0.0078125
        k(   16) = (  -0.0000000   0.2886751   0.1950717), wk =   0.0078125
        k(   17) = (  -0.0000001   0.2886751   0.2926076), wk =   0.0078125
        k(   18) = (   0.0000000   0.2886752  -0.3901437), wk =   0.0078125
        k(   19) = (  -0.0000000   0.2886752  -0.2926078), wk =   0.0078125
        k(   20) = (  -0.0000000   0.2886752  -0.1950719), wk =   0.0078125
        k(   21) = (  -0.0000000   0.2886752  -0.0975360), wk =   0.0078125
        k(   22) = (  -0.0000000   0.4330128  -0.0000002), wk =   0.0078125
        k(   23) = (  -0.0000001   0.4330127   0.0975357), wk =   0.0078125
        k(   24) = (  -0.0000001   0.4330127   0.1950716), wk =   0.0078125
        k(   25) = (  -0.0000001   0.4330127   0.2926075), wk =   0.0078125
        k(   26) = (  -0.0000000   0.4330128  -0.3901438), wk =   0.0078125
        k(   27) = (  -0.0000000   0.4330128  -0.2926079), wk =   0.0078125
        k(   28) = (  -0.0000000   0.4330128  -0.1950720), wk =   0.0078125
        k(   29) = (  -0.0000000   0.4330128  -0.0975361), wk =   0.0078125
        k(   30) = (   0.0000001  -0.5773504   0.0000002), wk =   0.0039062
        k(   31) = (   0.0000001  -0.5773504   0.0975361), wk =   0.0078125
        k(   32) = (   0.0000000  -0.5773504   0.1950720), wk =   0.0078125
        k(   33) = (   0.0000000  -0.5773504   0.2926079), wk =   0.0078125
        k(   34) = (   0.0000001  -0.5773503  -0.3901434), wk =   0.0039062
        k(   35) = (   0.1250000   0.0721688  -0.0000001), wk =   0.0078125
        k(   36) = (   0.1250000   0.0721688   0.0975358), wk =   0.0078125
        k(   37) = (   0.1250000   0.0721687   0.1950718), wk =   0.0078125
        k(   38) = (   0.1250000   0.0721687   0.2926077), wk =   0.0078125
        k(   39) = (   0.1250000   0.0721689  -0.3901437), wk =   0.0078125
        k(   40) = (   0.1250000   0.0721688  -0.2926078), wk =   0.0078125
        k(   41) = (   0.1250000   0.0721688  -0.1950719), wk =   0.0078125
        k(   42) = (   0.1250000   0.0721688  -0.0975360), wk =   0.0078125
        k(   43) = (   0.1250000   0.2165064  -0.0000001), wk =   0.0078125
        k(   44) = (   0.1250000   0.2165064   0.0975358), wk =   0.0078125
        k(   45) = (   0.1250000   0.2165063   0.1950717), wk =   0.0078125
        k(   46) = (   0.1249999   0.2165063   0.2926076), wk =   0.0078125
        k(   47) = (   0.1250000   0.2165064  -0.3901437), wk =   0.0078125
        k(   48) = (   0.1250000   0.2165064  -0.2926078), wk =   0.0078125
        k(   49) = (   0.1250000   0.2165064  -0.1950719), wk =   0.0078125
        k(   50) = (   0.1250000   0.2165064  -0.0975360), wk =   0.0078125
        k(   51) = (   0.1250000   0.3608440  -0.0000002), wk =   0.0078125
        k(   52) = (   0.1250000   0.3608439   0.0975357), wk =   0.0078125
        k(   53) = (   0.1249999   0.3608439   0.1950716), wk =   0.0078125
        k(   54) = (   0.1249999   0.3608439   0.2926075), wk =   0.0078125
        k(   55) = (   0.1250000   0.3608440  -0.3901438), wk =   0.0078125
        k(   56) = (   0.1250000   0.3608440  -0.2926079), wk =   0.0078125
        k(   57) = (   0.1250000   0.3608440  -0.1950720), wk =   0.0078125
        k(   58) = (   0.1250000   0.3608440  -0.0975361), wk =   0.0078125
        k(   59) = (   0.1249999   0.5051815  -0.0000002), wk =   0.0078125
        k(   60) = (   0.1249999   0.5051815   0.0975357), wk =   0.0078125
        k(   61) = (   0.1249999   0.5051815   0.1950716), wk =   0.0078125
        k(   62) = (   0.1249999   0.5051815   0.2926075), wk =   0.0078125
        k(   63) = (   0.1250000   0.5051816  -0.3901438), wk =   0.0078125
        k(   64) = (   0.1250000   0.5051816  -0.2926079), wk =   0.0078125
        k(   65) = (   0.1250000   0.5051816  -0.1950720), wk =   0.0078125
        k(   66) = (   0.1250000   0.5051816  -0.0975361), wk =   0.0078125
        k(   67) = (   0.1250001  -0.5051816   0.0000002), wk =   0.0078125
        k(   68) = (   0.1250000  -0.5051816   0.0975361), wk =   0.0078125
        k(   69) = (   0.1250000  -0.5051816   0.1950720), wk =   0.0078125
        k(   70) = (   0.1250000  -0.5051816   0.2926079), wk =   0.0078125
        k(   71) = (   0.1250001  -0.5051815  -0.3901434), wk =   0.0078125
        k(   72) = (   0.1250001  -0.5051815  -0.2926075), wk =   0.0078125
        k(   73) = (   0.1250001  -0.5051815  -0.1950716), wk =   0.0078125
        k(   74) = (   0.1250001  -0.5051816  -0.0975357), wk =   0.0078125
        k(   75) = (   0.1250000  -0.3608440   0.0000001), wk =   0.0078125
        k(   76) = (   0.1250000  -0.3608440   0.0975360), wk =   0.0078125
        k(   77) = (   0.1250000  -0.3608440   0.1950719), wk =   0.0078125
        k(   78) = (   0.1250000  -0.3608440   0.2926078), wk =   0.0078125
        k(   79) = (   0.1250001  -0.3608439  -0.3901435), wk =   0.0078125
        k(   80) = (   0.1250001  -0.3608439  -0.2926076), wk =   0.0078125
        k(   81) = (   0.1250001  -0.3608439  -0.1950717), wk =   0.0078125
        k(   82) = (   0.1250000  -0.3608440  -0.0975358), wk =   0.0078125
        k(   83) = (   0.1250000  -0.2165064   0.0000001), wk =   0.0078125
        k(   84) = (   0.1250000  -0.2165064   0.0975360), wk =   0.0078125
        k(   85) = (   0.1250000  -0.2165064   0.1950719), wk =   0.0078125
        k(   86) = (   0.1250000  -0.2165064   0.2926078), wk =   0.0078125
        k(   87) = (   0.1250001  -0.2165063  -0.3901435), wk =   0.0078125
        k(   88) = (   0.1250001  -0.2165063  -0.2926076), wk =   0.0078125
        k(   89) = (   0.1250000  -0.2165064  -0.1950717), wk =   0.0078125
        k(   90) = (   0.1250000  -0.2165064  -0.0975358), wk =   0.0078125
        k(   91) = (   0.1250000  -0.0721688   0.0000000), wk =   0.0078125
        k(   92) = (   0.1250000  -0.0721688   0.0975359), wk =   0.0078125
        k(   93) = (   0.1250000  -0.0721688   0.1950718), wk =   0.0078125
        k(   94) = (   0.1250000  -0.0721689   0.2926077), wk =   0.0078125
        k(   95) = (   0.1250000  -0.0721687  -0.3901436), wk =   0.0078125
        k(   96) = (   0.1250000  -0.0721688  -0.2926077), wk =   0.0078125
        k(   97) = (   0.1250000  -0.0721688  -0.1950718), wk =   0.0078125
        k(   98) = (   0.1250000  -0.0721688  -0.0975359), wk =   0.0078125
        k(   99) = (   0.2500000   0.1443376  -0.0000001), wk =   0.0078125
        k(  100) = (   0.2500000   0.1443375   0.0975358), wk =   0.0078125
        k(  101) = (   0.2500000   0.1443375   0.1950717), wk =   0.0078125
        k(  102) = (   0.2500000   0.1443375   0.2926076), wk =   0.0078125
        k(  103) = (   0.2500000   0.1443376  -0.3901437), wk =   0.0078125
        k(  104) = (   0.2500000   0.1443376  -0.2926078), wk =   0.0078125
        k(  105) = (   0.2500000   0.1443376  -0.1950719), wk =   0.0078125
        k(  106) = (   0.2500000   0.1443376  -0.0975360), wk =   0.0078125
        k(  107) = (   0.2500000   0.2886752  -0.0000002), wk =   0.0078125
        k(  108) = (   0.2500000   0.2886751   0.0975357), wk =   0.0078125
        k(  109) = (   0.2500000   0.2886751   0.1950716), wk =   0.0078125
        k(  110) = (   0.2499999   0.2886751   0.2926075), wk =   0.0078125
        k(  111) = (   0.2500000   0.2886752  -0.3901438), wk =   0.0078125
        k(  112) = (   0.2500000   0.2886752  -0.2926079), wk =   0.0078125
        k(  113) = (   0.2500000   0.2886752  -0.1950720), wk =   0.0078125
        k(  114) = (   0.2500000   0.2886752  -0.0975361), wk =   0.0078125
        k(  115) = (   0.2500000   0.4330127  -0.0000002), wk =   0.0078125
        k(  116) = (   0.2499999   0.4330127   0.0975357), wk =   0.0078125
        k(  117) = (   0.2499999   0.4330127   0.1950716), wk =   0.0078125
        k(  118) = (   0.2499999   0.4330127   0.2926075), wk =   0.0078125
        k(  119) = (   0.2500000   0.4330128  -0.3901438), wk =   0.0078125
        k(  120) = (   0.2500000   0.4330128  -0.2926079), wk =   0.0078125
        k(  121) = (   0.2500000   0.4330128  -0.1950720), wk =   0.0078125
        k(  122) = (   0.2500000   0.4330128  -0.0975361), wk =   0.0078125
        k(  123) = (   0.2499999   0.5773503  -0.0000003), wk =   0.0078125
        k(  124) = (   0.2499999   0.5773503   0.0975356), wk =   0.0078125
        k(  125) = (   0.2499999   0.5773503   0.1950715), wk =   0.0078125
        k(  126) = (   0.2499999   0.5773503   0.2926074), wk =   0.0078125
        k(  127) = (   0.2500000   0.5773504  -0.3901439), wk =   0.0078125
        k(  128) = (   0.2500000   0.5773504  -0.2926080), wk =   0.0078125
        k(  129) = (   0.2500000   0.5773504  -0.1950721), wk =   0.0078125
        k(  130) = (   0.2499999   0.5773503  -0.0975362), wk =   0.0078125
        k(  131) = (   0.2500000  -0.4330128   0.0000001), wk =   0.0078125
        k(  132) = (   0.2500000  -0.4330128   0.0975360), wk =   0.0078125
        k(  133) = (   0.2500000  -0.4330128   0.1950719), wk =   0.0078125
        k(  134) = (   0.2500000  -0.4330128   0.2926078), wk =   0.0078125
        k(  135) = (   0.2500001  -0.4330127  -0.3901435), wk =   0.0078125
        k(  136) = (   0.2500001  -0.4330127  -0.2926076), wk =   0.0078125
        k(  137) = (   0.2500001  -0.4330128  -0.1950717), wk =   0.0078125
        k(  138) = (   0.2500001  -0.4330128  -0.0975358), wk =   0.0078125
        k(  139) = (   0.2500000  -0.2886752   0.0000001), wk =   0.0078125
        k(  140) = (   0.2500000  -0.2886752   0.0975360), wk =   0.0078125
        k(  141) = (   0.2500000  -0.2886752   0.1950719), wk =   0.0078125
        k(  142) = (   0.2500000  -0.2886753   0.2926078), wk =   0.0078125
        k(  143) = (   0.2500001  -0.2886751  -0.3901435), wk =   0.0078125
        k(  144) = (   0.2500001  -0.2886751  -0.2926076), wk =   0.0078125
        k(  145) = (   0.2500000  -0.2886752  -0.1950717), wk =   0.0078125
        k(  146) = (   0.2500000  -0.2886752  -0.0975358), wk =   0.0078125
        k(  147) = (   0.2500000  -0.1443376   0.0000000), wk =   0.0078125
        k(  148) = (   0.2500000  -0.1443376   0.0975359), wk =   0.0078125
        k(  149) = (   0.2500000  -0.1443377   0.1950718), wk =   0.0078125
        k(  150) = (   0.2500000  -0.1443377   0.2926077), wk =   0.0078125
        k(  151) = (   0.2500001  -0.1443375  -0.3901436), wk =   0.0078125
        k(  152) = (   0.2500000  -0.1443376  -0.2926077), wk =   0.0078125
        k(  153) = (   0.2500000  -0.1443376  -0.1950718), wk =   0.0078125
        k(  154) = (   0.2500000  -0.1443376  -0.0975359), wk =   0.0078125
        k(  155) = (   0.2500000  -0.0000000  -0.0000001), wk =   0.0078125
        k(  156) = (   0.2500000  -0.0000000   0.0975359), wk =   0.0078125
        k(  157) = (   0.2500000  -0.0000001   0.1950718), wk =   0.0078125
        k(  158) = (   0.2500000  -0.0000001   0.2926077), wk =   0.0078125
        k(  159) = (   0.2500000   0.0000000  -0.3901437), wk =   0.0078125
        k(  160) = (   0.2500000   0.0000000  -0.2926078), wk =   0.0078125
        k(  161) = (   0.2500000   0.0000000  -0.1950719), wk =   0.0078125
        k(  162) = (   0.2500000  -0.0000000  -0.0975360), wk =   0.0078125
        k(  163) = (   0.3750000   0.2165063  -0.0000002), wk =   0.0078125
        k(  164) = (   0.3750000   0.2165063   0.0975357), wk =   0.0078125
        k(  165) = (   0.3750000   0.2165063   0.1950716), wk =   0.0078125
        k(  166) = (   0.3749999   0.2165063   0.2926075), wk =   0.0078125
        k(  167) = (   0.3750000   0.2165064  -0.3901438), wk =   0.0078125
        k(  168) = (   0.3750000   0.2165064  -0.2926079), wk =   0.0078125
        k(  169) = (   0.3750000   0.2165064  -0.1950720), wk =   0.0078125
        k(  170) = (   0.3750000   0.2165064  -0.0975361), wk =   0.0078125
        k(  171) = (   0.3750000   0.3608439  -0.0000002), wk =   0.0078125
        k(  172) = (   0.3750000   0.3608439   0.0975357), wk =   0.0078125
        k(  173) = (   0.3749999   0.3608439   0.1950716), wk =   0.0078125
        k(  174) = (   0.3749999   0.3608439   0.2926075), wk =   0.0078125
        k(  175) = (   0.3750000   0.3608440  -0.3901438), wk =   0.0078125
        k(  176) = (   0.3750000   0.3608440  -0.2926079), wk =   0.0078125
        k(  177) = (   0.3750000   0.3608440  -0.1950720), wk =   0.0078125
        k(  178) = (   0.3750000   0.3608439  -0.0975361), wk =   0.0078125
        k(  179) = (   0.3749999   0.5051815  -0.0000003), wk =   0.0078125
        k(  180) = (   0.3749999   0.5051815   0.0975356), wk =   0.0078125
        k(  181) = (   0.3749999   0.5051815   0.1950715), wk =   0.0078125
        k(  182) = (   0.3749999   0.5051815   0.2926074), wk =   0.0078125
        k(  183) = (   0.3750000   0.5051816  -0.3901439), wk =   0.0078125
        k(  184) = (   0.3750000   0.5051816  -0.2926080), wk =   0.0078125
        k(  185) = (   0.3750000   0.5051816  -0.1950721), wk =   0.0078125
        k(  186) = (   0.3750000   0.5051815  -0.0975362), wk =   0.0078125
        k(  187) = (   0.3749999   0.6495191  -0.0000003), wk =   0.0078125
        k(  188) = (   0.3749999   0.6495191   0.0975356), wk =   0.0078125
        k(  189) = (   0.3749999   0.6495191   0.1950715), wk =   0.0078125
        k(  190) = (   0.3749999   0.6495191   0.2926074), wk =   0.0078125
        k(  191) = (   0.3750000   0.6495192  -0.3901439), wk =   0.0078125
        k(  192) = (   0.3750000   0.6495192  -0.2926080), wk =   0.0078125
        k(  193) = (   0.3749999   0.6495191  -0.1950721), wk =   0.0078125
        k(  194) = (   0.3749999   0.6495191  -0.0975362), wk =   0.0078125
        k(  195) = (   0.3750000  -0.3608440   0.0000001), wk =   0.0078125
        k(  196) = (   0.3750000  -0.3608440   0.0975360), wk =   0.0078125
        k(  197) = (   0.3750000  -0.3608440   0.1950719), wk =   0.0078125
        k(  198) = (   0.3750000  -0.3608441   0.2926078), wk =   0.0078125
        k(  199) = (   0.3750001  -0.3608439  -0.3901435), wk =   0.0078125
        k(  200) = (   0.3750001  -0.3608440  -0.2926076), wk =   0.0078125
        k(  201) = (   0.3750001  -0.3608440  -0.1950717), wk =   0.0078125
        k(  202) = (   0.3750000  -0.3608440  -0.0975358), wk =   0.0078125
        k(  203) = (   0.3750000  -0.2165064   0.0000000), wk =   0.0078125
        k(  204) = (   0.3750000  -0.2165064   0.0975359), wk =   0.0078125
        k(  205) = (   0.3750000  -0.2165065   0.1950718), wk =   0.0078125
        k(  206) = (   0.3750000  -0.2165065   0.2926077), wk =   0.0078125
        k(  207) = (   0.3750001  -0.2165064  -0.3901436), wk =   0.0078125
        k(  208) = (   0.3750001  -0.2165064  -0.2926077), wk =   0.0078125
        k(  209) = (   0.3750000  -0.2165064  -0.1950718), wk =   0.0078125
        k(  210) = (   0.3750000  -0.2165064  -0.0975359), wk =   0.0078125
        k(  211) = (   0.3750000  -0.0721688  -0.0000000), wk =   0.0078125
        k(  212) = (   0.3750000  -0.0721689   0.0975359), wk =   0.0078125
        k(  213) = (   0.3750000  -0.0721689   0.1950718), wk =   0.0078125
        k(  214) = (   0.3750000  -0.0721689   0.2926077), wk =   0.0078125
        k(  215) = (   0.3750000  -0.0721688  -0.3901437), wk =   0.0078125
        k(  216) = (   0.3750000  -0.0721688  -0.2926078), wk =   0.0078125
        k(  217) = (   0.3750000  -0.0721688  -0.1950719), wk =   0.0078125
        k(  218) = (   0.3750000  -0.0721688  -0.0975359), wk =   0.0078125
        k(  219) = (   0.3750000   0.0721688  -0.0000001), wk =   0.0078125
        k(  220) = (   0.3750000   0.0721687   0.0975358), wk =   0.0078125
        k(  221) = (   0.3750000   0.0721687   0.1950717), wk =   0.0078125
        k(  222) = (   0.3750000   0.0721687   0.2926076), wk =   0.0078125
        k(  223) = (   0.3750000   0.0721688  -0.3901437), wk =   0.0078125
        k(  224) = (   0.3750000   0.0721688  -0.2926078), wk =   0.0078125
        k(  225) = (   0.3750000   0.0721688  -0.1950719), wk =   0.0078125
        k(  226) = (   0.3750000   0.0721688  -0.0975360), wk =   0.0078125
        k(  227) = (  -0.5000000  -0.2886751   0.0000002), wk =   0.0039062
        k(  228) = (  -0.5000000  -0.2886751   0.0975361), wk =   0.0078125
        k(  229) = (  -0.5000000  -0.2886752   0.1950720), wk =   0.0078125
        k(  230) = (  -0.5000000  -0.2886752   0.2926079), wk =   0.0078125
        k(  231) = (  -0.4999999  -0.2886751  -0.3901434), wk =   0.0039062
        k(  232) = (  -0.5000000  -0.1443375   0.0000002), wk =   0.0078125
        k(  233) = (  -0.5000000  -0.1443376   0.0975361), wk =   0.0078125
        k(  234) = (  -0.5000000  -0.1443376   0.1950720), wk =   0.0078125
        k(  235) = (  -0.5000000  -0.1443376   0.2926079), wk =   0.0078125
        k(  236) = (  -0.4999999  -0.1443375  -0.3901435), wk =   0.0078125
        k(  237) = (  -0.5000000  -0.1443375  -0.2926075), wk =   0.0078125
        k(  238) = (  -0.5000000  -0.1443375  -0.1950716), wk =   0.0078125
        k(  239) = (  -0.5000000  -0.1443375  -0.0975357), wk =   0.0078125
        k(  240) = (  -0.5000000   0.0000001   0.0000001), wk =   0.0078125
        k(  241) = (  -0.5000000   0.0000000   0.0975360), wk =   0.0078125
        k(  242) = (  -0.5000000   0.0000000   0.1950719), wk =   0.0078125
        k(  243) = (  -0.5000000  -0.0000000   0.2926078), wk =   0.0078125
        k(  244) = (  -0.5000000   0.0000001  -0.3901435), wk =   0.0078125
        k(  245) = (  -0.5000000   0.0000001  -0.2926076), wk =   0.0078125
        k(  246) = (  -0.5000000   0.0000001  -0.1950717), wk =   0.0078125
        k(  247) = (  -0.5000000   0.0000001  -0.0975358), wk =   0.0078125
        k(  248) = (  -0.5000000   0.1443376   0.0000000), wk =   0.0078125
        k(  249) = (  -0.5000000   0.1443376   0.0975359), wk =   0.0078125
        k(  250) = (  -0.5000000   0.1443376   0.1950718), wk =   0.0078125
        k(  251) = (  -0.5000000   0.1443376   0.2926077), wk =   0.0078125
        k(  252) = (  -0.5000000   0.1443377  -0.3901436), wk =   0.0078125
        k(  253) = (  -0.5000000   0.1443377  -0.2926077), wk =   0.0078125
        k(  254) = (  -0.5000000   0.1443377  -0.1950718), wk =   0.0078125
        k(  255) = (  -0.5000000   0.1443377  -0.0975359), wk =   0.0078125
        k(  256) = (  -0.4999999  -0.8660255   0.0000004), wk =   0.0039062
        k(  257) = (  -0.4999999  -0.8660255   0.0975363), wk =   0.0078125
        k(  258) = (  -0.4999999  -0.8660255   0.1950722), wk =   0.0078125
        k(  259) = (  -0.4999999  -0.8660255   0.2926082), wk =   0.0078125
        k(  260) = (  -0.4999999  -0.8660254  -0.3901432), wk =   0.0039062

                       cryst. coord.
        k(    1) = (   0.0000000   0.0000000   0.0000000), wk =   0.0039062
        k(    2) = (   0.0000000   0.0000000   0.1250000), wk =   0.0078125
        k(    3) = (   0.0000000   0.0000000   0.2500000), wk =   0.0078125
        k(    4) = (   0.0000000   0.0000000   0.3750000), wk =   0.0078125
        k(    5) = (  -0.0000000  -0.0000000  -0.5000000), wk =   0.0039062
        k(    6) = (   0.0000000   0.1250000   0.0000000), wk =   0.0078125
        k(    7) = (   0.0000000   0.1250000   0.1250000), wk =   0.0078125
        k(    8) = (   0.0000000   0.1250000   0.2500000), wk =   0.0078125
        k(    9) = (   0.0000000   0.1250000   0.3750000), wk =   0.0078125
        k(   10) = (  -0.0000000   0.1250000  -0.5000000), wk =   0.0078125
        k(   11) = (  -0.0000000   0.1250000  -0.3750000), wk =   0.0078125
        k(   12) = (  -0.0000000   0.1250000  -0.2500000), wk =   0.0078125
        k(   13) = (  -0.0000000   0.1250000  -0.1250000), wk =   0.0078125
        k(   14) = (   0.0000000   0.2500000   0.0000000), wk =   0.0078125
        k(   15) = (   0.0000000   0.2500000   0.1250000), wk =   0.0078125
        k(   16) = (   0.0000000   0.2500000   0.2500000), wk =   0.0078125
        k(   17) = (   0.0000000   0.2500000   0.3750000), wk =   0.0078125
        k(   18) = (  -0.0000000   0.2500000  -0.5000000), wk =   0.0078125
        k(   19) = (  -0.0000000   0.2500000  -0.3750000), wk =   0.0078125
        k(   20) = (  -0.0000000   0.2500000  -0.2500000), wk =   0.0078125
        k(   21) = (  -0.0000000   0.2500000  -0.1250000), wk =   0.0078125
        k(   22) = (   0.0000000   0.3750000   0.0000000), wk =   0.0078125
        k(   23) = (   0.0000000   0.3750000   0.1250000), wk =   0.0078125
        k(   24) = (   0.0000000   0.3750000   0.2500000), wk =   0.0078125
        k(   25) = (   0.0000000   0.3750000   0.3750000), wk =   0.0078125
        k(   26) = (  -0.0000000   0.3750000  -0.5000000), wk =   0.0078125
        k(   27) = (   0.0000000   0.3750000  -0.3750000), wk =   0.0078125
        k(   28) = (   0.0000000   0.3750000  -0.2500000), wk =   0.0078125
        k(   29) = (   0.0000000   0.3750000  -0.1250000), wk =   0.0078125
        k(   30) = (  -0.0000000  -0.5000000  -0.0000000), wk =   0.0039062
        k(   31) = (   0.0000000  -0.5000000   0.1250000), wk =   0.0078125
        k(   32) = (   0.0000000  -0.5000000   0.2500000), wk =   0.0078125
        k(   33) = (   0.0000000  -0.5000000   0.3750000), wk =   0.0078125
        k(   34) = (  -0.0000000  -0.5000000  -0.5000000), wk =   0.0039062
        k(   35) = (   0.1250000   0.0000000   0.0000000), wk =   0.0078125
        k(   36) = (   0.1250000   0.0000000   0.1250000), wk =   0.0078125
        k(   37) = (   0.1250000   0.0000000   0.2500000), wk =   0.0078125
        k(   38) = (   0.1250000   0.0000000   0.3750000), wk =   0.0078125
        k(   39) = (   0.1250000   0.0000000  -0.5000000), wk =   0.0078125
        k(   40) = (   0.1250000   0.0000000  -0.3750000), wk =   0.0078125
        k(   41) = (   0.1250000   0.0000000  -0.2500000), wk =   0.0078125
        k(   42) = (   0.1250000   0.0000000  -0.1250000), wk =   0.0078125
        k(   43) = (   0.1250000   0.1250000   0.0000000), wk =   0.0078125
        k(   44) = (   0.1250000   0.1250000   0.1250000), wk =   0.0078125
        k(   45) = (   0.1250000   0.1250000   0.2500000), wk =   0.0078125
        k(   46) = (   0.1250000   0.1250000   0.3750000), wk =   0.0078125
        k(   47) = (   0.1250000   0.1250000  -0.5000000), wk =   0.0078125
        k(   48) = (   0.1250000   0.1250000  -0.3750000), wk =   0.0078125
        k(   49) = (   0.1250000   0.1250000  -0.2500000), wk =   0.0078125
        k(   50) = (   0.1250000   0.1250000  -0.1250000), wk =   0.0078125
        k(   51) = (   0.1250000   0.2500000  -0.0000000), wk =   0.0078125
        k(   52) = (   0.1250000   0.2500000   0.1250000), wk =   0.0078125
        k(   53) = (   0.1250000   0.2500000   0.2500000), wk =   0.0078125
        k(   54) = (   0.1250000   0.2500000   0.3750000), wk =   0.0078125
        k(   55) = (   0.1250000   0.2500000  -0.5000000), wk =   0.0078125
        k(   56) = (   0.1250000   0.2500000  -0.3750000), wk =   0.0078125
        k(   57) = (   0.1250000   0.2500000  -0.2500000), wk =   0.0078125
        k(   58) = (   0.1250000   0.2500000  -0.1250000), wk =   0.0078125
        k(   59) = (   0.1250000   0.3750000   0.0000000), wk =   0.0078125
        k(   60) = (   0.1250000   0.3750000   0.1250000), wk =   0.0078125
        k(   61) = (   0.1250000   0.3750000   0.2500000), wk =   0.0078125
        k(   62) = (   0.1250000   0.3750000   0.3750000), wk =   0.0078125
        k(   63) = (   0.1250000   0.3750000  -0.5000000), wk =   0.0078125
        k(   64) = (   0.1250000   0.3750000  -0.3750000), wk =   0.0078125
        k(   65) = (   0.1250000   0.3750000  -0.2500000), wk =   0.0078125
        k(   66) = (   0.1250000   0.3750000  -0.1250000), wk =   0.0078125
        k(   67) = (   0.1250000  -0.5000000  -0.0000000), wk =   0.0078125
        k(   68) = (   0.1250000  -0.5000000   0.1250000), wk =   0.0078125
        k(   69) = (   0.1250000  -0.5000000   0.2500000), wk =   0.0078125
        k(   70) = (   0.1250000  -0.5000000   0.3750000), wk =   0.0078125
        k(   71) = (   0.1250000  -0.5000000  -0.5000000), wk =   0.0078125
        k(   72) = (   0.1250000  -0.5000000  -0.3750000), wk =   0.0078125
        k(   73) = (   0.1250000  -0.5000000  -0.2500000), wk =   0.0078125
        k(   74) = (   0.1250000  -0.5000000  -0.1250000), wk =   0.0078125
        k(   75) = (   0.1250000  -0.3750000   0.0000000), wk =   0.0078125
        k(   76) = (   0.1250000  -0.3750000   0.1250000), wk =   0.0078125
        k(   77) = (   0.1250000  -0.3750000   0.2500000), wk =   0.0078125
        k(   78) = (   0.1250000  -0.3750000   0.3750000), wk =   0.0078125
        k(   79) = (   0.1250000  -0.3750000  -0.5000000), wk =   0.0078125
        k(   80) = (   0.1250000  -0.3750000  -0.3750000), wk =   0.0078125
        k(   81) = (   0.1250000  -0.3750000  -0.2500000), wk =   0.0078125
        k(   82) = (   0.1250000  -0.3750000  -0.1250000), wk =   0.0078125
        k(   83) = (   0.1250000  -0.2500000  -0.0000000), wk =   0.0078125
        k(   84) = (   0.1250000  -0.2500000   0.1250000), wk =   0.0078125
        k(   85) = (   0.1250000  -0.2500000   0.2500000), wk =   0.0078125
        k(   86) = (   0.1250000  -0.2500000   0.3750000), wk =   0.0078125
        k(   87) = (   0.1250000  -0.2500000  -0.5000000), wk =   0.0078125
        k(   88) = (   0.1250000  -0.2500000  -0.3750000), wk =   0.0078125
        k(   89) = (   0.1250000  -0.2500000  -0.2500000), wk =   0.0078125
        k(   90) = (   0.1250000  -0.2500000  -0.1250000), wk =   0.0078125
        k(   91) = (   0.1250000  -0.1250000   0.0000000), wk =   0.0078125
        k(   92) = (   0.1250000  -0.1250000   0.1250000), wk =   0.0078125
        k(   93) = (   0.1250000  -0.1250000   0.2500000), wk =   0.0078125
        k(   94) = (   0.1250000  -0.1250000   0.3750000), wk =   0.0078125
        k(   95) = (   0.1250000  -0.1250000  -0.5000000), wk =   0.0078125
        k(   96) = (   0.1250000  -0.1250000  -0.3750000), wk =   0.0078125
        k(   97) = (   0.1250000  -0.1250000  -0.2500000), wk =   0.0078125
        k(   98) = (   0.1250000  -0.1250000  -0.1250000), wk =   0.0078125
        k(   99) = (   0.2500000   0.0000000   0.0000000), wk =   0.0078125
        k(  100) = (   0.2500000   0.0000000   0.1250000), wk =   0.0078125
        k(  101) = (   0.2500000   0.0000000   0.2500000), wk =   0.0078125
        k(  102) = (   0.2500000   0.0000000   0.3750000), wk =   0.0078125
        k(  103) = (   0.2500000   0.0000000  -0.5000000), wk =   0.0078125
        k(  104) = (   0.2500000   0.0000000  -0.3750000), wk =   0.0078125
        k(  105) = (   0.2500000   0.0000000  -0.2500000), wk =   0.0078125
        k(  106) = (   0.2500000   0.0000000  -0.1250000), wk =   0.0078125
        k(  107) = (   0.2500000   0.1250000   0.0000000), wk =   0.0078125
        k(  108) = (   0.2500000   0.1250000   0.1250000), wk =   0.0078125
        k(  109) = (   0.2500000   0.1250000   0.2500000), wk =   0.0078125
        k(  110) = (   0.2500000   0.1250000   0.3750000), wk =   0.0078125
        k(  111) = (   0.2500000   0.1250000  -0.5000000), wk =   0.0078125
        k(  112) = (   0.2500000   0.1250000  -0.3750000), wk =   0.0078125
        k(  113) = (   0.2500000   0.1250000  -0.2500000), wk =   0.0078125
        k(  114) = (   0.2500000   0.1250000  -0.1250000), wk =   0.0078125
        k(  115) = (   0.2500000   0.2500000   0.0000000), wk =   0.0078125
        k(  116) = (   0.2500000   0.2500000   0.1250000), wk =   0.0078125
        k(  117) = (   0.2500000   0.2500000   0.2500000), wk =   0.0078125
        k(  118) = (   0.2500000   0.2500000   0.3750000), wk =   0.0078125
        k(  119) = (   0.2500000   0.2500000  -0.5000000), wk =   0.0078125
        k(  120) = (   0.2500000   0.2500000  -0.3750000), wk =   0.0078125
        k(  121) = (   0.2500000   0.2500000  -0.2500000), wk =   0.0078125
        k(  122) = (   0.2500000   0.2500000  -0.1250000), wk =   0.0078125
        k(  123) = (   0.2500000   0.3750000   0.0000000), wk =   0.0078125
        k(  124) = (   0.2500000   0.3750000   0.1250000), wk =   0.0078125
        k(  125) = (   0.2500000   0.3750000   0.2500000), wk =   0.0078125
        k(  126) = (   0.2500000   0.3750000   0.3750000), wk =   0.0078125
        k(  127) = (   0.2500000   0.3750000  -0.5000000), wk =   0.0078125
        k(  128) = (   0.2500000   0.3750000  -0.3750000), wk =   0.0078125
        k(  129) = (   0.2500000   0.3750000  -0.2500000), wk =   0.0078125
        k(  130) = (   0.2500000   0.3750000  -0.1250000), wk =   0.0078125
        k(  131) = (   0.2500000  -0.5000000  -0.0000000), wk =   0.0078125
        k(  132) = (   0.2500000  -0.5000000   0.1250000), wk =   0.0078125
        k(  133) = (   0.2500000  -0.5000000   0.2500000), wk =   0.0078125
        k(  134) = (   0.2500000  -0.5000000   0.3750000), wk =   0.0078125
        k(  135) = (   0.2500000  -0.5000000  -0.5000000), wk =   0.0078125
        k(  136) = (   0.2500000  -0.5000000  -0.3750000), wk =   0.0078125
        k(  137) = (   0.2500000  -0.5000000  -0.2500000), wk =   0.0078125
        k(  138) = (   0.2500000  -0.5000000  -0.1250000), wk =   0.0078125
        k(  139) = (   0.2500000  -0.3750000   0.0000000), wk =   0.0078125
        k(  140) = (   0.2500000  -0.3750000   0.1250000), wk =   0.0078125
        k(  141) = (   0.2500000  -0.3750000   0.2500000), wk =   0.0078125
        k(  142) = (   0.2500000  -0.3750000   0.3750000), wk =   0.0078125
        k(  143) = (   0.2500000  -0.3750000  -0.5000000), wk =   0.0078125
        k(  144) = (   0.2500000  -0.3750000  -0.3750000), wk =   0.0078125
        k(  145) = (   0.2500000  -0.3750000  -0.2500000), wk =   0.0078125
        k(  146) = (   0.2500000  -0.3750000  -0.1250000), wk =   0.0078125
        k(  147) = (   0.2500000  -0.2500000   0.0000000), wk =   0.0078125
        k(  148) = (   0.2500000  -0.2500000   0.1250000), wk =   0.0078125
        k(  149) = (   0.2500000  -0.2500000   0.2500000), wk =   0.0078125
        k(  150) = (   0.2500000  -0.2500000   0.3750000), wk =   0.0078125
        k(  151) = (   0.2500000  -0.2500000  -0.5000000), wk =   0.0078125
        k(  152) = (   0.2500000  -0.2500000  -0.3750000), wk =   0.0078125
        k(  153) = (   0.2500000  -0.2500000  -0.2500000), wk =   0.0078125
        k(  154) = (   0.2500000  -0.2500000  -0.1250000), wk =   0.0078125
        k(  155) = (   0.2500000  -0.1250000   0.0000000), wk =   0.0078125
        k(  156) = (   0.2500000  -0.1250000   0.1250000), wk =   0.0078125
        k(  157) = (   0.2500000  -0.1250000   0.2500000), wk =   0.0078125
        k(  158) = (   0.2500000  -0.1250000   0.3750000), wk =   0.0078125
        k(  159) = (   0.2500000  -0.1250000  -0.5000000), wk =   0.0078125
        k(  160) = (   0.2500000  -0.1250000  -0.3750000), wk =   0.0078125
        k(  161) = (   0.2500000  -0.1250000  -0.2500000), wk =   0.0078125
        k(  162) = (   0.2500000  -0.1250000  -0.1250000), wk =   0.0078125
        k(  163) = (   0.3750000   0.0000000   0.0000000), wk =   0.0078125
        k(  164) = (   0.3750000   0.0000000   0.1250000), wk =   0.0078125
        k(  165) = (   0.3750000   0.0000000   0.2500000), wk =   0.0078125
        k(  166) = (   0.3750000   0.0000000   0.3750000), wk =   0.0078125
        k(  167) = (   0.3750000   0.0000000  -0.5000000), wk =   0.0078125
        k(  168) = (   0.3750000  -0.0000000  -0.3750000), wk =   0.0078125
        k(  169) = (   0.3750000   0.0000000  -0.2500000), wk =   0.0078125
        k(  170) = (   0.3750000   0.0000000  -0.1250000), wk =   0.0078125
        k(  171) = (   0.3750000   0.1250000   0.0000000), wk =   0.0078125
        k(  172) = (   0.3750000   0.1250000   0.1250000), wk =   0.0078125
        k(  173) = (   0.3750000   0.1250000   0.2500000), wk =   0.0078125
        k(  174) = (   0.3750000   0.1250000   0.3750000), wk =   0.0078125
        k(  175) = (   0.3750000   0.1250000  -0.5000000), wk =   0.0078125
        k(  176) = (   0.3750000   0.1250000  -0.3750000), wk =   0.0078125
        k(  177) = (   0.3750000   0.1250000  -0.2500000), wk =   0.0078125
        k(  178) = (   0.3750000   0.1250000  -0.1250000), wk =   0.0078125
        k(  179) = (   0.3750000   0.2500000   0.0000000), wk =   0.0078125
        k(  180) = (   0.3750000   0.2500000   0.1250000), wk =   0.0078125
        k(  181) = (   0.3750000   0.2500000   0.2500000), wk =   0.0078125
        k(  182) = (   0.3750000   0.2500000   0.3750000), wk =   0.0078125
        k(  183) = (   0.3750000   0.2500000  -0.5000000), wk =   0.0078125
        k(  184) = (   0.3750000   0.2500000  -0.3750000), wk =   0.0078125
        k(  185) = (   0.3750000   0.2500000  -0.2500000), wk =   0.0078125
        k(  186) = (   0.3750000   0.2500000  -0.1250000), wk =   0.0078125
        k(  187) = (   0.3750000   0.3750000   0.0000000), wk =   0.0078125
        k(  188) = (   0.3750000   0.3750000   0.1250000), wk =   0.0078125
        k(  189) = (   0.3750000   0.3750000   0.2500000), wk =   0.0078125
        k(  190) = (   0.3750000   0.3750000   0.3750000), wk =   0.0078125
        k(  191) = (   0.3750000   0.3750000  -0.5000000), wk =   0.0078125
        k(  192) = (   0.3750000   0.3750000  -0.3750000), wk =   0.0078125
        k(  193) = (   0.3750000   0.3750000  -0.2500000), wk =   0.0078125
        k(  194) = (   0.3750000   0.3750000  -0.1250000), wk =   0.0078125
        k(  195) = (   0.3750000  -0.5000000   0.0000000), wk =   0.0078125
        k(  196) = (   0.3750000  -0.5000000   0.1250000), wk =   0.0078125
        k(  197) = (   0.3750000  -0.5000000   0.2500000), wk =   0.0078125
        k(  198) = (   0.3750000  -0.5000000   0.3750000), wk =   0.0078125
        k(  199) = (   0.3750000  -0.5000000  -0.5000000), wk =   0.0078125
        k(  200) = (   0.3750000  -0.5000000  -0.3750000), wk =   0.0078125
        k(  201) = (   0.3750000  -0.5000000  -0.2500000), wk =   0.0078125
        k(  202) = (   0.3750000  -0.5000000  -0.1250000), wk =   0.0078125
        k(  203) = (   0.3750000  -0.3750000   0.0000000), wk =   0.0078125
        k(  204) = (   0.3750000  -0.3750000   0.1250000), wk =   0.0078125
        k(  205) = (   0.3750000  -0.3750000   0.2500000), wk =   0.0078125
        k(  206) = (   0.3750000  -0.3750000   0.3750000), wk =   0.0078125
        k(  207) = (   0.3750000  -0.3750000  -0.5000000), wk =   0.0078125
        k(  208) = (   0.3750000  -0.3750000  -0.3750000), wk =   0.0078125
        k(  209) = (   0.3750000  -0.3750000  -0.2500000), wk =   0.0078125
        k(  210) = (   0.3750000  -0.3750000  -0.1250000), wk =   0.0078125
        k(  211) = (   0.3750000  -0.2500000   0.0000000), wk =   0.0078125
        k(  212) = (   0.3750000  -0.2500000   0.1250000), wk =   0.0078125
        k(  213) = (   0.3750000  -0.2500000   0.2500000), wk =   0.0078125
        k(  214) = (   0.3750000  -0.2500000   0.3750000), wk =   0.0078125
        k(  215) = (   0.3750000  -0.2500000  -0.5000000), wk =   0.0078125
        k(  216) = (   0.3750000  -0.2500000  -0.3750000), wk =   0.0078125
        k(  217) = (   0.3750000  -0.2500000  -0.2500000), wk =   0.0078125
        k(  218) = (   0.3750000  -0.2500000  -0.1250000), wk =   0.0078125
        k(  219) = (   0.3750000  -0.1250000   0.0000000), wk =   0.0078125
        k(  220) = (   0.3750000  -0.1250000   0.1250000), wk =   0.0078125
        k(  221) = (   0.3750000  -0.1250000   0.2500000), wk =   0.0078125
        k(  222) = (   0.3750000  -0.1250000   0.3750000), wk =   0.0078125
        k(  223) = (   0.3750000  -0.1250000  -0.5000000), wk =   0.0078125
        k(  224) = (   0.3750000  -0.1250000  -0.3750000), wk =   0.0078125
        k(  225) = (   0.3750000  -0.1250000  -0.2500000), wk =   0.0078125
        k(  226) = (   0.3750000  -0.1250000  -0.1250000), wk =   0.0078125
        k(  227) = (  -0.5000000  -0.0000000  -0.0000000), wk =   0.0039062
        k(  228) = (  -0.5000000  -0.0000000   0.1250000), wk =   0.0078125
        k(  229) = (  -0.5000000  -0.0000000   0.2500000), wk =   0.0078125
        k(  230) = (  -0.5000000  -0.0000000   0.3750000), wk =   0.0078125
        k(  231) = (  -0.5000000  -0.0000000  -0.5000000), wk =   0.0039062
        k(  232) = (  -0.5000000   0.1250000  -0.0000000), wk =   0.0078125
        k(  233) = (  -0.5000000   0.1250000   0.1250000), wk =   0.0078125
        k(  234) = (  -0.5000000   0.1250000   0.2500000), wk =   0.0078125
        k(  235) = (  -0.5000000   0.1250000   0.3750000), wk =   0.0078125
        k(  236) = (  -0.5000000   0.1250000  -0.5000000), wk =   0.0078125
        k(  237) = (  -0.5000000   0.1250000  -0.3750000), wk =   0.0078125
        k(  238) = (  -0.5000000   0.1250000  -0.2500000), wk =   0.0078125
        k(  239) = (  -0.5000000   0.1250000  -0.1250000), wk =   0.0078125
        k(  240) = (  -0.5000000   0.2500000  -0.0000000), wk =   0.0078125
        k(  241) = (  -0.5000000   0.2500000   0.1250000), wk =   0.0078125
        k(  242) = (  -0.5000000   0.2500000   0.2500000), wk =   0.0078125
        k(  243) = (  -0.5000000   0.2500000   0.3750000), wk =   0.0078125
        k(  244) = (  -0.5000000   0.2500000  -0.5000000), wk =   0.0078125
        k(  245) = (  -0.5000000   0.2500000  -0.3750000), wk =   0.0078125
        k(  246) = (  -0.5000000   0.2500000  -0.2500000), wk =   0.0078125
        k(  247) = (  -0.5000000   0.2500000  -0.1250000), wk =   0.0078125
        k(  248) = (  -0.5000000   0.3750000  -0.0000000), wk =   0.0078125
        k(  249) = (  -0.5000000   0.3750000   0.1250000), wk =   0.0078125
        k(  250) = (  -0.5000000   0.3750000   0.2500000), wk =   0.0078125
        k(  251) = (  -0.5000000   0.3750000   0.3750000), wk =   0.0078125
        k(  252) = (  -0.5000000   0.3750000  -0.5000000), wk =   0.0078125
        k(  253) = (  -0.5000000   0.3750000  -0.3750000), wk =   0.0078125
        k(  254) = (  -0.5000000   0.3750000  -0.2500000), wk =   0.0078125
        k(  255) = (  -0.5000000   0.3750000  -0.1250000), wk =   0.0078125
        k(  256) = (  -0.5000000  -0.5000000  -0.0000000), wk =   0.0039062
        k(  257) = (  -0.5000000  -0.5000000   0.1250000), wk =   0.0078125
        k(  258) = (  -0.5000000  -0.5000000   0.2500000), wk =   0.0078125
        k(  259) = (  -0.5000000  -0.5000000   0.3750000), wk =   0.0078125
        k(  260) = (  -0.5000000  -0.5000000  -0.5000000), wk =   0.0039062

     Dense  grid:    75743 G-vectors     FFT dimensions: (  54,  54,  72)

     Smooth grid:    29417 G-vectors     FFT dimensions: (  40,  40,  48)

     Dynamical RAM for                 wfc:       0.07 MB

     Dynamical RAM for     wfc (w. buffer):       4.86 MB

     Dynamical RAM for           str. fact:       0.22 MB

     Dynamical RAM for           local pot:       0.00 MB

     Dynamical RAM for          nlocal pot:       0.22 MB

     Dynamical RAM for                qrad:       8.13 MB

     Dynamical RAM for          rho,v,vnew:       0.55 MB

     Dynamical RAM for               rhoin:       0.18 MB

     Dynamical RAM for            rho*nmix:       1.16 MB

     Dynamical RAM for           G-vectors:       0.28 MB

     Dynamical RAM for          h,s,v(r/c):       0.08 MB

     Dynamical RAM for          <psi|beta>:       0.02 MB

     Dynamical RAM for                 psi:       0.29 MB

     Dynamical RAM for                hpsi:       0.29 MB

     Dynamical RAM for                spsi:       0.29 MB

     Dynamical RAM for      wfcinit/wfcrot:       0.20 MB

     Dynamical RAM for           addusdens:       3.79 MB

     Dynamical RAM for          addusforce:       3.93 MB

     Dynamical RAM for         addusstress:       4.00 MB

     Estimated static dynamical RAM per process >      16.45 MB

     Estimated max dynamical RAM per process >      20.45 MB

     Estimated total dynamical RAM >       1.28 GB

     Check: negative core charge=   -0.000003

     Initial potential from superposition of free atoms

     starting charge   41.69964, renormalised to   42.00000
     Starting wfcs are   26 randomized atomic wfcs

     total cpu time spent up to now is        1.8 secs

     Self-consistent Calculation

     iteration #  1     ecut=    80.00 Ry     beta= 0.50
     Davidson diagonalization with overlap
     ethr =  1.00E-02,  avg # of iterations =  2.0

     total cpu time spent up to now is        2.5 secs

     total energy              =    -650.64633399 Ry
     Harris-Foulkes estimate   =    -651.44346857 Ry
     estimated scf accuracy    <       1.19505019 Ry

     iteration #  2     ecut=    80.00 Ry     beta= 0.50
     Davidson diagonalization with overlap
     ethr =  2.85E-03,  avg # of iterations =  3.0

     total cpu time spent up to now is        3.5 secs

     total energy              =    -651.02256187 Ry
     Harris-Foulkes estimate   =    -651.28949958 Ry
     estimated scf accuracy    <       0.61150096 Ry

     iteration #  3     ecut=    80.00 Ry     beta= 0.50
     Davidson diagonalization with overlap
     ethr =  1.46E-03,  avg # of iterations =  2.0

     total cpu time spent up to now is        4.3 secs

     total energy              =    -651.12604948 Ry
     Harris-Foulkes estimate   =    -651.12937905 Ry
     estimated scf accuracy    <       0.00976864 Ry

     iteration #  4     ecut=    80.00 Ry     beta= 0.50
     Davidson diagonalization with overlap
     ethr =  2.33E-05,  avg # of iterations =  3.0

     total cpu time spent up to now is        5.3 secs

     total energy              =    -651.12670328 Ry
     Harris-Foulkes estimate   =    -651.12787109 Ry
     estimated scf accuracy    <       0.00293156 Ry

     iteration #  5     ecut=    80.00 Ry     beta= 0.50
     Davidson diagonalization with overlap
     ethr =  6.98E-06,  avg # of iterations =  2.8

     total cpu time spent up to now is        6.2 secs

     total energy              =    -651.12727770 Ry
     Harris-Foulkes estimate   =    -651.12731806 Ry
     estimated scf accuracy    <       0.00017828 Ry

     iteration #  6     ecut=    80.00 Ry     beta= 0.50
     Davidson diagonalization with overlap
     ethr =  4.24E-07,  avg # of iterations =  2.6

     total cpu time spent up to now is        7.1 secs

     total energy              =    -651.12730471 Ry
     Harris-Foulkes estimate   =    -651.12730130 Ry
     estimated scf accuracy    <       0.00000973 Ry

     iteration #  7     ecut=    80.00 Ry     beta= 0.50
     Davidson diagonalization with overlap
     ethr =  2.32E-08,  avg # of iterations =  2.0

     total cpu time spent up to now is        7.9 secs

     End of self-consistent calculation

          k = 0.0000 0.0000 0.0000 (  3623 PWs)   bands (ev):

  -115.3333 -69.6934 -69.6934 -69.6911 -64.7746 -31.7691 -31.7422 -31.7422
    -9.9856  -8.6151   2.0297   2.0297   3.0505   3.2758   3.2758   3.5392
     5.8116   5.8116   7.0538   7.3698   7.3698

     occupation numbers 
     1.0000   1.0000   1.0000   1.0000   1.0000   1.0000   1.0000   1.0000
     1.0000   1.0000   1.0000   1.0000   1.0000   1.0000   1.0000   1.0000
     1.0000   1.0000   1.0000   1.0000   1.0000

          k =-0.0000-0.0000 0.0975 (  3665 PWs)   bands (ev):

  -115.3333 -69.6934 -69.6934 -69.6911 -64.7746 -31.7693 -31.7422 -31.7422
    -9.9421  -8.6570   2.0303   2.0303   2.8087   3.2550   3.2550   3.7843
     5.8608   5.8608   6.7677   7.3512   7.3512

     occupation numbers 
     1.0000   1.0000   1.0000   1.0000   1.0000   1.0000   1.0000   1.0000
     1.0000   1.0000   1.0000   1.0000   1.0000   1.0000   1.0000   1.0000
     1.0000   1.0000   1.0000   1.0000   1.0000

          k =-0.0000-0.0000 0.1951 (  3684 PWs)   bands (ev):

  -115.3333 -69.6934 -69.6934 -69.6911 -64.7746 -31.7697 -31.7422 -31.7422
    -9.8221  -8.7735   2.0318   2.0318   2.4923   3.2068   3.2068   4.1084
     5.9829   5.9829   6.2757   7.3012   7.3012

     occupation numbers 
     1.0000   1.0000   1.0000   1.0000   1.0000   1.0000   1.0000   1.0000
     1.0000   1.0000   1.0000   1.0000   1.0000   1.0000   1.0000   1.0000
     1.0000   1.0000   1.0000   1.0000   1.0000

          k =-0.0000-0.0000 0.2926 (  3732 PWs)   bands (ev):

  -115.3333 -69.6935 -69.6935 -69.6912 -64.7746 -31.7702 -31.7422 -31.7422
    -9.6640  -8.9285   2.0334   2.0334   2.2817   3.1613   3.1613   4.3264
     5.9072   6.1125   6.1125   7.2411   7.2411

     occupation numbers 
     1.0000   1.0000   1.0000   1.0000   1.0000   1.0000   1.0000   1.0000
     1.0000   1.0000   1.0000   1.0000   1.0000   1.0000   1.0000   1.0000
     1.0000   1.0000   1.0000   1.0000   1.0000

          k = 0.0000 0.0000-0.3901 (  3744 PWs)   bands (ev):

  -115.3333 -69.6935 -69.6935 -69.6912 -64.7746 -31.7704 -31.7422 -31.7422
    -9.5731  -9.0183   2.0341   2.0341   2.2096   3.1431   3.1431   4.4009
     5.7750   6.1697   6.1697   7.2121   7.2121

     occupation numbers 
     1.0000   1.0000   1.0000   1.0000   1.0000   1.0000   1.0000   1.0000
     1.0000   1.0000   1.0000   1.0000   1.0000   1.0000   1.0000   1.0000
     1.0000   1.0000   1.0000   1.0000   1.0000

          k =-0.0000 0.1443-0.0000 (  3666 PWs)   bands (ev):

  -115.3333 -69.6936 -69.6934 -69.6911 -64.7745 -31.7689 -31.7451 -31.7428
    -9.9041  -8.6100   2.0040   2.1108   2.8997   3.2696   3.5284   3.5578
     5.5015   5.7286   6.7292   6.9723   7.2221

     occupation numbers 
     1.0000   1.0000   1.0000   1.0000   1.0000   1.0000   1.0000   1.0000
     1.0000   1.0000   1.0000   1.0000   1.0000   1.0000   1.0000   1.0000
     1.0000   1.0000   1.0000   1.0000   1.0000

          k =-0.0000 0.1443 0.0975 (  3669 PWs)   bands (ev):

  -115.3333 -69.6935 -69.6934 -69.6911 -64.7745 -31.7691 -31.7451 -31.7428
    -9.8628  -8.6475   2.0022   2.1122   2.7644   3.2477   3.2513   3.9241
     5.5716   5.7794   6.3963   7.1786   7.2003

     occupation numbers 
     1.0000   1.0000   1.0000   1.0000   1.0000   1.0000   1.0000   1.0000
     1.0000   1.0000   1.0000   1.0000   1.0000   1.0000   1.0000   1.0000
     1.0000   1.0000   1.0000   1.0000   1.0000

          k =-0.0000 0.1443 0.1951 (  3681 PWs)   bands (ev):

  -115.3333 -69.6936 -69.6935 -69.6911 -64.7745 -31.7695 -31.7451 -31.7428
    -9.7494  -8.7520   1.9959   2.1147   2.4974   3.0820   3.1980   4.2566
     5.7049   5.9129   6.0143   7.1332   7.3051

     occupation numbers 
     1.0000   1.0000   1.0000   1.0000   1.0000   1.0000   1.0000   1.0000
     1.0000   1.0000   1.0000   1.0000   1.0000   1.0000   1.0000   1.0000
     1.0000   1.0000   1.0000   1.0000   1.0000

          k =-0.0000 0.1443 0.2926 (  3695 PWs)   bands (ev):

  -115.3333 -69.6936 -69.6935 -69.6912 -64.7745 -31.7699 -31.7451 -31.7428
    -9.6021  -8.8909   1.9809   2.1168   2.3054   2.9692   3.1515   4.4752
     5.5675   6.0369   6.0634   7.0459   7.3108

     occupation numbers 
     1.0000   1.0000   1.0000   1.0000   1.0000   1.0000   1.0000   1.0000
     1.0000   1.0000   1.0000   1.0000   1.0000   1.0000   1.0000   1.0000
     1.0000   1.0000   1.0000   1.0000   1.0000

          k = 0.0000 0.1443-0.3901 (  3712 PWs)   bands (ev):

  -115.3333 -69.6936 -69.6935 -69.6912 -64.7745 -31.7701 -31.7451 -31.7428
    -9.5192  -8.9704   1.9683   2.1173   2.2461   2.9255   3.1333   4.5605
     5.4424   6.1262   6.1372   6.9971   7.2964

     occupation numbers 
     1.0000   1.0000   1.0000   1.0000   1.0000   1.0000   1.0000   1.0000
     1.0000   1.0000   1.0000   1.0000   1.0000   1.0000   1.0000   1.0000
     1.0000   1.0000   1.0000   1.0000   1.0000

          k = 0.0000 0.1443-0.2926 (  3695 PWs)   bands (ev):

  -115.3333 -69.6936 -69.6935 -69.6912 -64.7745 -31.7699 -31.7451 -31.7428
    -9.6021  -8.8909   1.9791   2.1157   2.3086   2.9677   3.1525   4.4896
     5.5156   6.0676   6.0716   7.0365   7.3209

     occupation numbers 
     1.0000   1.0000   1.0000   1.0000   1.0000   1.0000   1.0000   1.0000
     1.0000   1.0000   1.0000   1.0000   1.0000   1.0000   1.0000   1.0000
     1.0000   1.0000   1.0000   1.0000   1.0000

          k = 0.0000 0.1443-0.1951 (  3681 PWs)   bands (ev):

  -115.3333 -69.6936 -69.6935 -69.6911 -64.7745 -31.7695 -31.7451 -31.7428
    -9.7494  -8.7520   1.9954   2.1132   2.4990   3.0800   3.1994   4.2708
     5.6366   5.9221   6.0563   7.1223   7.3231

     occupation numbers 
     1.0000   1.0000   1.0000   1.0000   1.0000   1.0000   1.0000   1.0000
     1.0000   1.0000   1.0000   1.0000   1.0000   1.0000   1.0000   1.0000
     1.0000   1.0000   1.0000   1.0000   1.0000

          k =-0.0000 0.1443-0.0975 (  3669 PWs)   bands (ev):

  -115.3333 -69.6935 -69.6934 -69.6911 -64.7745 -31.7691 -31.7451 -31.7428
    -9.8628  -8.6475   2.0026   2.1112   2.7641   3.2487   3.2487   3.9330
     5.5538   5.7849   6.3899   7.1935   7.2004

     occupation numbers 
     1.0000   1.0000   1.0000   1.0000   1.0000   1.0000   1.0000   1.0000
     1.0000   1.0000   1.0000   1.0000   1.0000   1.0000   1.0000   1.0000
     1.0000   1.0000   1.0000   1.0000   1.0000

          k =-0.0000 0.2887-0.0000 (  3684 PWs)   bands (ev):

  -115.3333 -69.6939 -69.6936 -69.6911 -64.7741 -31.7683 -31.7521 -31.7444
    -9.6901  -8.6116   1.9811   2.3317   2.7604   3.2552   3.5435   3.9839
     4.8369   5.4890   5.8049   6.7328   6.8989

     occupation numbers 
     1.0000   1.0000   1.0000   1.0000   1.0000   1.0000   1.0000   1.0000
     1.0000   1.0000   1.0000   1.0000   1.0000   1.0000   1.0000   1.0000
     1.0000   1.0000   1.0000   1.0000   1.0000

          k =-0.0000 0.2887 0.0975 (  3674 PWs)   bands (ev):

  -115.3333 -69.6939 -69.6935 -69.6911 -64.7741 -31.7685 -31.7521 -31.7444
    -9.6555  -8.6369   1.9762   2.3343   2.6721   3.2314   3.2687   4.1479
     5.0047   5.5475   5.6789   6.8647   6.9088

     occupation numbers 
     1.0000   1.0000   1.0000   1.0000   1.0000   1.0000   1.0000   1.0000
     1.0000   1.0000   1.0000   1.0000   1.0000   1.0000   1.0000   1.0000
     1.0000   1.0000   1.0000   1.0000   1.0000

          k =-0.0000 0.2887 0.1951 (  3676 PWs)   bands (ev):

  -115.3333 -69.6939 -69.6935 -69.6911 -64.7741 -31.7689 -31.7521 -31.7444
    -9.5623  -8.7077   1.9609   2.3385   2.4734   2.9016   3.1785   4.3350
     5.1776   5.6163   5.7096   6.7567   7.2154

     occupation numbers 
     1.0000   1.0000   1.0000   1.0000   1.0000   1.0000   1.0000   1.0000
     1.0000   1.0000   1.0000   1.0000   1.0000   1.0000   1.0000   1.0000
     1.0000   1.0000   1.0000   1.0000   1.0000

          k =-0.0000 0.2887 0.2926 (  3684 PWs)   bands (ev):

  -115.3333 -69.6939 -69.6936 -69.6911 -64.7741 -31.7693 -31.7521 -31.7444
    -9.4467  -8.8011   1.9267   2.3181   2.3421   2.6487   3.1295   4.4782
     5.0114   5.9054   5.9182   6.5983   7.3912

     occupation numbers 
     1.0000   1.0000   1.0000   1.0000   1.0000   1.0000   1.0000   1.0000
     1.0000   1.0000   1.0000   1.0000   1.0000   1.0000   1.0000   1.0000
     1.0000   1.0000   1.0000   1.0000   1.0000

          k = 0.0000 0.2887-0.3901 (  3690 PWs)   bands (ev):

  -115.3333 -69.6939 -69.6936 -69.6911 -64.7741 -31.7694 -31.7520 -31.7444
    -9.3862  -8.8524   1.8971   2.2853   2.3426   2.5490   3.1110   4.5979
     4.8471   6.0517   6.0574   6.4839   7.4416

     occupation numbers 
     1.0000   1.0000   1.0000   1.0000   1.0000   1.0000   1.0000   1.0000
     1.0000   1.0000   1.0000   1.0000   1.0000   1.0000   1.0000   1.0000
     1.0000   1.0000   1.0000   1.0000   1.0000

          k =-0.0000 0.2887-0.2926 (  3684 PWs)   bands (ev):

  -115.3333 -69.6939 -69.6936 -69.6911 -64.7741 -31.7693 -31.7521 -31.7444
    -9.4467  -8.8010   1.9173   2.3374   2.3397   2.6385   3.1318   4.5768
     4.8685   5.9299   5.9352   6.5796   7.4203

     occupation numbers 
     1.0000   1.0000   1.0000   1.0000   1.0000   1.0000   1.0000   1.0000
     1.0000   1.0000   1.0000   1.0000   1.0000   1.0000   1.0000   1.0000
     1.0000   1.0000   1.0000   1.0000   1.0000

          k =-0.0000 0.2887-0.1951 (  3676 PWs)   bands (ev):

  -115.3333 -69.6939 -69.6935 -69.6911 -64.7741 -31.7689 -31.7521 -31.7444
    -9.5624  -8.7076   1.9581   2.3353   2.4781   2.8957   3.1815   4.4269
     5.0088   5.6603   5.7248   6.7391   7.2648

     occupation numbers 
     1.0000   1.0000   1.0000   1.0000   1.0000   1.0000   1.0000   1.0000
     1.0000   1.0000   1.0000   1.0000   1.0000   1.0000   1.0000   1.0000
     1.0000   1.0000   1.0000   1.0000   1.0000

          k =-0.0000 0.2887-0.0975 (  3674 PWs)   bands (ev):

  -115.3333 -69.6939 -69.6935 -69.6911 -64.7741 -31.7685 -31.7521 -31.7444
    -9.6555  -8.6368   1.9779   2.3321   2.6683   3.2334   3.2570   4.2153
     4.9395   5.5559   5.6466   6.8546   6.9611

     occupation numbers 
     1.0000   1.0000   1.0000   1.0000   1.0000   1.0000   1.0000   1.0000
     1.0000   1.0000   1.0000   1.0000   1.0000   1.0000   1.0000   1.0000
     1.0000   1.0000   1.0000   1.0000   1.0000

          k =-0.0000 0.4330-0.0000 (  3680 PWs)   bands (ev):

  -115.3333 -69.6943 -69.6937 -69.6911 -64.7738 -31.7677 -31.7591 -31.7460
    -9.4362  -8.6480   2.0362   2.6059   2.6835   3.2430   3.4484   4.2539
     4.5140   5.0906   5.1665   6.3985   6.6266

     occupation numbers 
     1.0000   1.0000   1.0000   1.0000   1.0000   1.0000   1.0000   1.0000
     1.0000   1.0000   1.0000   1.0000   1.0000   1.0000   1.0000   1.0000
     1.0000   1.0000   1.0000   1.0000   1.0000

          k =-0.0000 0.4330 0.0975 (  3687 PWs)   bands (ev):

  -115.3333 -69.6943 -69.6937 -69.6911 -64.7738 -31.7678 -31.7591 -31.7460
    -9.4124  -8.6567   2.0260   2.5969   2.6087   3.2179   3.2946   3.9562
     4.7005   5.2304   5.3250   6.5828   6.5884

     occupation numbers 
     1.0000   1.0000   1.0000   1.0000   1.0000   1.0000   1.0000   1.0000
     1.0000   1.0000   1.0000   1.0000   1.0000   1.0000   1.0000   1.0000
     1.0000   1.0000   1.0000   1.0000   1.0000

          k =-0.0000 0.4330 0.1951 (  3691 PWs)   bands (ev):

  -115.3333 -69.6943 -69.6937 -69.6911 -64.7738 -31.7682 -31.7591 -31.7460
    -9.3508  -8.6815   2.0035   2.4072   2.6130   2.8574   3.1631   3.8674
     4.7790   5.4070   5.6746   6.4504   7.0457

     occupation numbers 
     1.0000   1.0000   1.0000   1.0000   1.0000   1.0000   1.0000   1.0000
     1.0000   1.0000   1.0000   1.0000   1.0000   1.0000   1.0000   1.0000
     1.0000   1.0000   1.0000   1.0000   1.0000

          k =-0.0000 0.4330 0.2926 (  3687 PWs)   bands (ev):

  -115.3333 -69.6943 -69.6937 -69.6911 -64.7738 -31.7686 -31.7590 -31.7460
    -9.2812  -8.7141   1.9700   2.2323   2.5218   2.6166   3.1130   3.8657
     4.7726   5.6458   5.9909   6.2511   7.4113

     occupation numbers 
     1.0000   1.0000   1.0000   1.0000   1.0000   1.0000   1.0000   1.0000
     1.0000   1.0000   1.0000   1.0000   1.0000   1.0000   1.0000   1.0000
     1.0000   1.0000   1.0000   1.0000   1.0000

          k =-0.0000 0.4330-0.3901 (  3688 PWs)   bands (ev):

  -115.3333 -69.6943 -69.6937 -69.6911 -64.7738 -31.7688 -31.7590 -31.7460
    -9.2490  -8.7310   1.9410   2.1733   2.4086   2.6169   3.0945   3.8738
     4.7545   5.8321   6.0798   6.1183   7.5447

     occupation numbers 
     1.0000   1.0000   1.0000   1.0000   1.0000   1.0000   1.0000   1.0000
     1.0000   1.0000   1.0000   1.0000   1.0000   1.0000   1.0000   1.0000
     1.0000   1.0000   1.0000   1.0000   1.0000

          k =-0.0000 0.4330-0.2926 (  3687 PWs)   bands (ev):

  -115.3333 -69.6943 -69.6937 -69.6911 -64.7738 -31.7686 -31.7590 -31.7460
    -9.2814  -8.7140   1.9578   2.2600   2.5043   2.6134   3.1161   3.8838
     4.7487   5.6595   5.9752   6.2364   7.4442

     occupation numbers 
     1.0000   1.0000   1.0000   1.0000   1.0000   1.0000   1.0000   1.0000
     1.0000   1.0000   1.0000   1.0000   1.0000   1.0000   1.0000   1.0000
     1.0000   1.0000   1.0000   1.0000   1.0000

          k =-0.0000 0.4330-0.1951 (  3691 PWs)   bands (ev):

  -115.3333 -69.6943 -69.6937 -69.6911 -64.7738 -31.7682 -31.7591 -31.7460
    -9.3509  -8.6813   2.0093   2.3992   2.6088   2.8486   3.1671   3.9081
     4.7563   5.4178   5.6217   6.4380   7.1030

     occupation numbers 
     1.0000   1.0000   1.0000   1.0000   1.0000   1.0000   1.0000   1.0000
     1.0000   1.0000   1.0000   1.0000   1.0000   1.0000   1.0000   1.0000
     1.0000   1.0000   1.0000   1.0000   1.0000

          k =-0.0000 0.4330-0.0975 (  3687 PWs)   bands (ev):

  -115.3333 -69.6943 -69.6937 -69.6911 -64.7738 -31.7678 -31.7591 -31.7460
    -9.4125  -8.6566   2.0344   2.5841   2.6059   3.2205   3.2677   4.0196
     4.7427   5.1965   5.2363   6.5758   6.6496

     occupation numbers 
     1.0000   1.0000   1.0000   1.0000   1.0000   1.0000   1.0000   1.0000
     1.0000   1.0000   1.0000   1.0000   1.0000   1.0000   1.0000   1.0000
     1.0000   1.0000   1.0000   1.0000   1.0000

          k = 0.0000-0.5774 0.0000 (  3670 PWs)   bands (ev):

  -115.3333 -69.6944 -69.6937 -69.6911 -64.7737 -31.7674 -31.7620 -31.7466
    -9.3075  -8.6851   2.0990   2.6588   2.7449   3.2401   3.3288   4.1356
     4.7407   4.8096   4.9959   6.1980   6.5291

     occupation numbers 
     1.0000   1.0000   1.0000   1.0000   1.0000   1.0000   1.0000   1.0000
     1.0000   1.0000   1.0000   1.0000   1.0000   1.0000   1.0000   1.0000
     1.0000   1.0000   1.0000   1.0000   1.0000

          k = 0.0000-0.5774 0.0975 (  3686 PWs)   bands (ev):

  -115.3333 -69.6944 -69.6937 -69.6911 -64.7737 -31.7676 -31.7620 -31.7466
    -9.2914  -8.6835   2.0867   2.5702   2.7454   3.2165   3.2770   3.7518
     4.5871   5.0627   5.3493   6.4274   6.4808

     occupation numbers 
     1.0000   1.0000   1.0000   1.0000   1.0000   1.0000   1.0000   1.0000
     1.0000   1.0000   1.0000   1.0000   1.0000   1.0000   1.0000   1.0000
     1.0000   1.0000   1.0000   1.0000   1.0000

          k = 0.0000-0.5774 0.1951 (  3692 PWs)   bands (ev):

  -115.3333 -69.6944 -69.6937 -69.6911 -64.7737 -31.7680 -31.7619 -31.7466
    -9.2513  -8.6807   2.0418   2.4055   2.7469   2.8920   3.1633   3.5049
     4.6497   5.2395   5.7689   6.3447   6.9711

     occupation numbers 
     1.0000   1.0000   1.0000   1.0000   1.0000   1.0000   1.0000   1.0000
     1.0000   1.0000   1.0000   1.0000   1.0000   1.0000   1.0000   1.0000
     1.0000   1.0000   1.0000   1.0000   1.0000

          k = 0.0000-0.5774 0.2926 (  3678 PWs)   bands (ev):

  -115.3333 -69.6944 -69.6937 -69.6911 -64.7737 -31.7684 -31.7619 -31.7466
    -9.2091  -8.6795   1.9816   2.2516   2.5143   2.7486   3.1144   3.4797
     4.6958   5.4684   6.0556   6.1522   7.4237

     occupation numbers 
     1.0000   1.0000   1.0000   1.0000   1.0000   1.0000   1.0000   1.0000
     1.0000   1.0000   1.0000   1.0000   1.0000   1.0000   1.0000   1.0000
     1.0000   1.0000   1.0000   1.0000   1.0000

          k = 0.0000-0.5774-0.3901 (  3680 PWs)   bands (ev):

  -115.3333 -69.6944 -69.6937 -69.6911 -64.7737 -31.7685 -31.7619 -31.7466
    -9.1909  -8.6796   1.9680   2.1371   2.4234   2.7494   3.0951   3.4767
     4.7088   5.6145   6.0200   6.1697   7.5807

     occupation numbers 
     1.0000   1.0000   1.0000   1.0000   1.0000   1.0000   1.0000   1.0000
     1.0000   1.0000   1.0000   1.0000   1.0000   1.0000   1.0000   1.0000
     1.0000   1.0000   1.0000   1.0000   1.0000

          k = 0.1250 0.0722-0.0000 (  3666 PWs)   bands (ev):

  -115.3333 -69.6936 -69.6934 -69.6911 -64.7745 -31.7689 -31.7451 -31.7428
    -9.9041  -8.6100   2.0040   2.1108   2.8997   3.2696   3.5284   3.5578
     5.5015   5.7286   6.7292   6.9723   7.2221

     occupation numbers 
     1.0000   1.0000   1.0000   1.0000   1.0000   1.0000   1.0000   1.0000
     1.0000   1.0000   1.0000   1.0000   1.0000   1.0000   1.0000   1.0000
     1.0000   1.0000   1.0000   1.0000   1.0000

          k = 0.1250 0.0722 0.0975 (  3669 PWs)   bands (ev):

  -115.3333 -69.6935 -69.6934 -69.6911 -64.7745 -31.7691 -31.7451 -31.7428
    -9.8628  -8.6475   2.0026   2.1112   2.7641   3.2487   3.2487   3.9330
     5.5538   5.7849   6.3899   7.1935   7.2004

     occupation numbers 
     1.0000   1.0000   1.0000   1.0000   1.0000   1.0000   1.0000   1.0000
     1.0000   1.0000   1.0000   1.0000   1.0000   1.0000   1.0000   1.0000
     1.0000   1.0000   1.0000   1.0000   1.0000

          k = 0.1250 0.0722 0.1951 (  3681 PWs)   bands (ev):

  -115.3333 -69.6936 -69.6935 -69.6911 -64.7745 -31.7695 -31.7451 -31.7428
    -9.7494  -8.7520   1.9954   2.1132   2.4990   3.0800   3.1994   4.2708
     5.6366   5.9221   6.0563   7.1223   7.3231

     occupation numbers 
     1.0000   1.0000   1.0000   1.0000   1.0000   1.0000   1.0000   1.0000
     1.0000   1.0000   1.0000   1.0000   1.0000   1.0000   1.0000   1.0000
     1.0000   1.0000   1.0000   1.0000   1.0000

          k = 0.1250 0.0722 0.2926 (  3695 PWs)   bands (ev):

  -115.3333 -69.6936 -69.6935 -69.6912 -64.7745 -31.7699 -31.7451 -31.7428
    -9.6021  -8.8909   1.9791   2.1157   2.3086   2.9677   3.1525   4.4896
     5.5156   6.0676   6.0716   7.0365   7.3209

     occupation numbers 
     1.0000   1.0000   1.0000   1.0000   1.0000   1.0000   1.0000   1.0000
     1.0000   1.0000   1.0000   1.0000   1.0000   1.0000   1.0000   1.0000
     1.0000   1.0000   1.0000   1.0000   1.0000

          k = 0.1250 0.0722-0.3901 (  3712 PWs)   bands (ev):

  -115.3333 -69.6936 -69.6935 -69.6912 -64.7745 -31.7701 -31.7451 -31.7428
    -9.5192  -8.9704   1.9683   2.1173   2.2461   2.9255   3.1333   4.5605
     5.4424   6.1262   6.1372   6.9971   7.2964

     occupation numbers 
     1.0000   1.0000   1.0000   1.0000   1.0000   1.0000   1.0000   1.0000
     1.0000   1.0000   1.0000   1.0000   1.0000   1.0000   1.0000   1.0000
     1.0000   1.0000   1.0000   1.0000   1.0000

          k = 0.1250 0.0722-0.2926 (  3695 PWs)   bands (ev):

  -115.3333 -69.6936 -69.6935 -69.6912 -64.7745 -31.7699 -31.7451 -31.7428
    -9.6021  -8.8909   1.9809   2.1168   2.3054   2.9692   3.1515   4.4752
     5.5675   6.0369   6.0634   7.0459   7.3108

     occupation numbers 
     1.0000   1.0000   1.0000   1.0000   1.0000   1.0000   1.0000   1.0000
     1.0000   1.0000   1.0000   1.0000   1.0000   1.0000   1.0000   1.0000
     1.0000   1.0000   1.0000   1.0000   1.0000

          k = 0.1250 0.0722-0.1951 (  3681 PWs)   bands (ev):

  -115.3333 -69.6936 -69.6935 -69.6911 -64.7745 -31.7695 -31.7451 -31.7428
    -9.7494  -8.7520   1.9959   2.1147   2.4974   3.0820   3.1980   4.2566
     5.7049   5.9129   6.0143   7.1332   7.3051

     occupation numbers 
     1.0000   1.0000   1.0000   1.0000   1.0000   1.0000   1.0000   1.0000
     1.0000   1.0000   1.0000   1.0000   1.0000   1.0000   1.0000   1.0000
     1.0000   1.0000   1.0000   1.0000   1.0000

          k = 0.1250 0.0722-0.0975 (  3669 PWs)   bands (ev):

  -115.3333 -69.6935 -69.6934 -69.6911 -64.7745 -31.7691 -31.7451 -31.7428
    -9.8628  -8.6475   2.0022   2.1122   2.7644   3.2477   3.2513   3.9241
     5.5716   5.7794   6.3963   7.1786   7.2003

     occupation numbers 
     1.0000   1.0000   1.0000   1.0000   1.0000   1.0000   1.0000   1.0000
     1.0000   1.0000   1.0000   1.0000   1.0000   1.0000   1.0000   1.0000
     1.0000   1.0000   1.0000   1.0000   1.0000

          k = 0.1250 0.2165-0.0000 (  3685 PWs)   bands (ev):

  -115.3333 -69.6938 -69.6935 -69.6911 -64.7742 -31.7685 -31.7498 -31.7442
    -9.7560  -8.6085   1.9877   2.2592   2.7936   3.2538   3.5498   3.8615
     5.0723   5.4572   6.1336   6.8011   6.9317

     occupation numbers 
     1.0000   1.0000   1.0000   1.0000   1.0000   1.0000   1.0000   1.0000
     1.0000   1.0000   1.0000   1.0000   1.0000   1.0000   1.0000   1.0000
     1.0000   1.0000   1.0000   1.0000   1.0000

          k = 0.1250 0.2165 0.0975 (  3673 PWs)   bands (ev):

  -115.3333 -69.6938 -69.6935 -69.6911 -64.7742 -31.7686 -31.7498 -31.7442
    -9.7192  -8.6376   1.9841   2.2603   2.6997   3.2301   3.2601   4.1323
     5.1540   5.5309   5.9381   6.8750   7.0368

     occupation numbers 
     1.0000   1.0000   1.0000   1.0000   1.0000   1.0000   1.0000   1.0000
     1.0000   1.0000   1.0000   1.0000   1.0000   1.0000   1.0000   1.0000
     1.0000   1.0000   1.0000   1.0000   1.0000

          k = 0.1250 0.2165 0.1951 (  3673 PWs)   bands (ev):

  -115.3333 -69.6938 -69.6935 -69.6911 -64.7742 -31.7690 -31.7497 -31.7442
    -9.6193  -8.7192   1.9684   2.2631   2.4926   2.9436   3.1765   4.4045
     5.2281   5.7167   5.8084   6.7741   7.3077

     occupation numbers 
     1.0000   1.0000   1.0000   1.0000   1.0000   1.0000   1.0000   1.0000
     1.0000   1.0000   1.0000   1.0000   1.0000   1.0000   1.0000   1.0000
     1.0000   1.0000   1.0000   1.0000   1.0000

          k = 0.1250 0.2165 0.2926 (  3679 PWs)   bands (ev):

  -115.3333 -69.6938 -69.6935 -69.6911 -64.7742 -31.7695 -31.7497 -31.7442
    -9.4932  -8.8272   1.9340   2.2652   2.3338   2.7324   3.1258   4.5882
     5.0879   5.8767   6.0338   6.6282   7.4372

     occupation numbers 
     1.0000   1.0000   1.0000   1.0000   1.0000   1.0000   1.0000   1.0000
     1.0000   1.0000   1.0000   1.0000   1.0000   1.0000   1.0000   1.0000
     1.0000   1.0000   1.0000   1.0000   1.0000

          k = 0.1250 0.2165-0.3901 (  3690 PWs)   bands (ev):

  -115.3333 -69.6938 -69.6935 -69.6911 -64.7742 -31.7696 -31.7497 -31.7442
    -9.4257  -8.8874   1.9111   2.2622   2.2901   2.6549   3.1056   4.6777
     4.9841   5.9800   6.1546   6.5401   7.4605

     occupation numbers 
     1.0000   1.0000   1.0000   1.0000   1.0000   1.0000   1.0000   1.0000
     1.0000   1.0000   1.0000   1.0000   1.0000   1.0000   1.0000   1.0000
     1.0000   1.0000   1.0000   1.0000   1.0000

          k = 0.1250 0.2165-0.2926 (  3679 PWs)   bands (ev):

  -115.3333 -69.6938 -69.6935 -69.6911 -64.7742 -31.7695 -31.7497 -31.7442
    -9.4932  -8.8272   1.9340   2.2652   2.3338   2.7324   3.1258   4.5882
     5.0879   5.8767   6.0338   6.6282   7.4372

     occupation numbers 
     1.0000   1.0000   1.0000   1.0000   1.0000   1.0000   1.0000   1.0000
     1.0000   1.0000   1.0000   1.0000   1.0000   1.0000   1.0000   1.0000
     1.0000   1.0000   1.0000   1.0000   1.0000

          k = 0.1250 0.2165-0.1951 (  3673 PWs)   bands (ev):

  -115.3333 -69.6938 -69.6935 -69.6911 -64.7742 -31.7690 -31.7497 -31.7442
    -9.6193  -8.7192   1.9684   2.2631   2.4925   2.9436   3.1765   4.4045
     5.2281   5.7167   5.8084   6.7741   7.3077

     occupation numbers 
     1.0000   1.0000   1.0000   1.0000   1.0000   1.0000   1.0000   1.0000
     1.0000   1.0000   1.0000   1.0000   1.0000   1.0000   1.0000   1.0000
     1.0000   1.0000   1.0000   1.0000   1.0000

          k = 0.1250 0.2165-0.0975 (  3673 PWs)   bands (ev):

  -115.3333 -69.6938 -69.6935 -69.6911 -64.7742 -31.7686 -31.7498 -31.7442
    -9.7192  -8.6376   1.9841   2.2603   2.6997   3.2301   3.2601   4.1323
     5.1540   5.5309   5.9381   6.8750   7.0368

     occupation numbers 
     1.0000   1.0000   1.0000   1.0000   1.0000   1.0000   1.0000   1.0000
     1.0000   1.0000   1.0000   1.0000   1.0000   1.0000   1.0000   1.0000
     1.0000   1.0000   1.0000   1.0000   1.0000

          k = 0.1250 0.3608-0.0000 (  3693 PWs)   bands (ev):

  -115.3333 -69.6941 -69.6937 -69.6911 -64.7739 -31.7679 -31.7562 -31.7464
    -9.5182  -8.6306   2.0394   2.5087   2.7154   3.2283   3.5056   4.2933
     4.5270   5.0196   5.5139   6.4891   6.5764

     occupation numbers 
     1.0000   1.0000   1.0000   1.0000   1.0000   1.0000   1.0000   1.0000
     1.0000   1.0000   1.0000   1.0000   1.0000   1.0000   1.0000   1.0000
     1.0000   1.0000   1.0000   1.0000   1.0000

          k = 0.1250 0.3608 0.0975 (  3683 PWs)   bands (ev):

  -115.3333 -69.6941 -69.6937 -69.6911 -64.7739 -31.7680 -31.7562 -31.7464
    -9.4905  -8.6450   2.0343   2.5047   2.6367   3.2004   3.2862   4.1596
     4.6953   5.2612   5.4593   6.4769   6.7539

     occupation numbers 
     1.0000   1.0000   1.0000   1.0000   1.0000   1.0000   1.0000   1.0000
     1.0000   1.0000   1.0000   1.0000   1.0000   1.0000   1.0000   1.0000
     1.0000   1.0000   1.0000   1.0000   1.0000

          k = 0.1250 0.3608 0.1951 (  3687 PWs)   bands (ev):

  -115.3333 -69.6941 -69.6937 -69.6911 -64.7739 -31.7684 -31.7561 -31.7464
    -9.4174  -8.6858   2.0183   2.4149   2.5436   2.8612   3.1394   4.1514
     4.8215   5.3798   5.7348   6.3442   7.1788

     occupation numbers 
     1.0000   1.0000   1.0000   1.0000   1.0000   1.0000   1.0000   1.0000
     1.0000   1.0000   1.0000   1.0000   1.0000   1.0000   1.0000   1.0000
     1.0000   1.0000   1.0000   1.0000   1.0000

          k = 0.1250 0.3608 0.2926 (  3678 PWs)   bands (ev):

  -115.3333 -69.6941 -69.6937 -69.6911 -64.7739 -31.7688 -31.7561 -31.7464
    -9.3317  -8.7392   1.9763   2.2771   2.5170   2.5687   3.0824   4.1787
     4.8303   5.5279   6.0275   6.1952   7.5110

     occupation numbers 
     1.0000   1.0000   1.0000   1.0000   1.0000   1.0000   1.0000   1.0000
     1.0000   1.0000   1.0000   1.0000   1.0000   1.0000   1.0000   1.0000
     1.0000   1.0000   1.0000   1.0000   1.0000

          k = 0.1250 0.3608-0.3901 (  3684 PWs)   bands (ev):

  -115.3333 -69.6941 -69.6937 -69.6911 -64.7739 -31.7690 -31.7561 -31.7464
    -9.2902  -8.7673   1.9385   2.2482   2.4215   2.5467   3.0605   4.1993
     4.8001   5.7258   5.8875   6.2734   7.6296

     occupation numbers 
     1.0000   1.0000   1.0000   1.0000   1.0000   1.0000   1.0000   1.0000
     1.0000   1.0000   1.0000   1.0000   1.0000   1.0000   1.0000   1.0000
     1.0000   1.0000   1.0000   1.0000   1.0000

          k = 0.1250 0.3608-0.2926 (  3678 PWs)   bands (ev):

  -115.3333 -69.6941 -69.6937 -69.6911 -64.7739 -31.7688 -31.7561 -31.7464
    -9.3317  -8.7392   1.9688   2.2929   2.5150   2.5601   3.0842   4.2034
     4.7901   5.5408   6.0319   6.1824   7.5273

     occupation numbers 
     1.0000   1.0000   1.0000   1.0000   1.0000   1.0000   1.0000   1.0000
     1.0000   1.0000   1.0000   1.0000   1.0000   1.0000   1.0000   1.0000
     1.0000   1.0000   1.0000   1.0000   1.0000

          k = 0.1250 0.3608-0.1951 (  3687 PWs)   bands (ev):

  -115.3333 -69.6941 -69.6937 -69.6911 -64.7739 -31.7684 -31.7561 -31.7464
    -9.4174  -8.6858   2.0200   2.4085   2.5459   2.8567   3.1418   4.1952
     4.7709   5.3848   5.7204   6.3451   7.2045

     occupation numbers 
     1.0000   1.0000   1.0000   1.0000   1.0000   1.0000   1.0000   1.0000
     1.0000   1.0000   1.0000   1.0000   1.0000   1.0000   1.0000   1.0000
     1.0000   1.0000   1.0000   1.0000   1.0000

          k = 0.1250 0.3608-0.0975 (  3683 PWs)   bands (ev):

  -115.3333 -69.6941 -69.6937 -69.6911 -64.7739 -31.7680 -31.7562 -31.7464
    -9.4905  -8.6450   2.0384   2.4993   2.6342   3.2005   3.2762   4.2144
     4.6735   5.2502   5.4208   6.4965   6.7681

     occupation numbers 
     1.0000   1.0000   1.0000   1.0000   1.0000   1.0000   1.0000   1.0000
     1.0000   1.0000   1.0000   1.0000   1.0000   1.0000   1.0000   1.0000
     1.0000   1.0000   1.0000   1.0000   1.0000

          k = 0.1250 0.5052-0.0000 (  3686 PWs)   bands (ev):

  -115.3333 -69.6944 -69.6938 -69.6911 -64.7737 -31.7674 -31.7606 -31.7480
    -9.3119  -8.6815   2.1672   2.6686   2.7519   3.2131   3.3548   4.1217
     4.6601   4.8735   4.9942   6.1974   6.3500

     occupation numbers 
     1.0000   1.0000   1.0000   1.0000   1.0000   1.0000   1.0000   1.0000
     1.0000   1.0000   1.0000   1.0000   1.0000   1.0000   1.0000   1.0000
     1.0000   1.0000   1.0000   1.0000   1.0000

          k = 0.1250 0.5052 0.0975 (  3686 PWs)   bands (ev):

  -115.3333 -69.6944 -69.6938 -69.6911 -64.7737 -31.7676 -31.7606 -31.7480
    -9.2954  -8.6805   2.1559   2.5830   2.7574   3.1836   3.2939   3.8017
     4.4833   4.9811   5.4745   6.2500   6.4605

     occupation numbers 
     1.0000   1.0000   1.0000   1.0000   1.0000   1.0000   1.0000   1.0000
     1.0000   1.0000   1.0000   1.0000   1.0000   1.0000   1.0000   1.0000
     1.0000   1.0000   1.0000   1.0000   1.0000

          k = 0.1250 0.5052 0.1951 (  3689 PWs)   bands (ev):

  -115.3333 -69.6944 -69.6938 -69.6911 -64.7737 -31.7680 -31.7606 -31.7480
    -9.2542  -8.6791   2.1226   2.4132   2.7610   2.8919   3.1249   3.5917
     4.6122   5.0192   5.9074   6.1420   7.0150

     occupation numbers 
[...]
    -9.2542  -8.6790   2.1338   2.3960   2.7621   2.8867   3.1253   3.6097
     4.6118   5.0123   5.8868   6.1440   7.0360

     occupation numbers 
     1.0000   1.0000   1.0000   1.0000   1.0000   1.0000   1.0000   1.0000
     1.0000   1.0000   1.0000   1.0000   1.0000   1.0000   1.0000   1.0000
     1.0000   1.0000   1.0000   1.0000   1.0000

          k =-0.5000-0.1443-0.0975 (  3686 PWs)   bands (ev):

  -115.3333 -69.6944 -69.6938 -69.6911 -64.7737 -31.7676 -31.7606 -31.7480
    -9.2954  -8.6805   2.1652   2.5669   2.7599   3.1839   3.2769   3.8321
     4.5050   4.9637   5.4296   6.2772   6.4667

     occupation numbers 
     1.0000   1.0000   1.0000   1.0000   1.0000   1.0000   1.0000   1.0000
     1.0000   1.0000   1.0000   1.0000   1.0000   1.0000   1.0000   1.0000
     1.0000   1.0000   1.0000   1.0000   1.0000

          k =-0.5000 0.0000 0.0000 (  3681 PWs)   bands (ev):

  -115.3333 -69.6943 -69.6939 -69.6911 -64.7737 -31.7674 -31.7589 -31.7497
    -9.3162  -8.6780   2.2403   2.6718   2.7657   3.1872   3.3938   4.1028
     4.5206   4.8675   5.1489   6.1089   6.2223

     occupation numbers 
     1.0000   1.0000   1.0000   1.0000   1.0000   1.0000   1.0000   1.0000
     1.0000   1.0000   1.0000   1.0000   1.0000   1.0000   1.0000   1.0000
     1.0000   1.0000   1.0000   1.0000   1.0000

          k =-0.5000 0.0000 0.0975 (  3683 PWs)   bands (ev):

  -115.3333 -69.6943 -69.6939 -69.6911 -64.7737 -31.7676 -31.7589 -31.7497
    -9.2994  -8.6775   2.2417   2.5782   2.7709   3.1504   3.2954   4.0018
     4.1825   5.0571   5.5036   6.0610   6.4598

     occupation numbers 
     1.0000   1.0000   1.0000   1.0000   1.0000   1.0000   1.0000   1.0000
     1.0000   1.0000   1.0000   1.0000   1.0000   1.0000   1.0000   1.0000
     1.0000   1.0000   1.0000   1.0000   1.0000

          k =-0.5000 0.0000 0.1951 (  3678 PWs)   bands (ev):

  -115.3333 -69.6943 -69.6938 -69.6911 -64.7737 -31.7680 -31.7589 -31.7497
    -9.2571  -8.6775   2.2384   2.3890   2.7702   2.8805   3.0896   3.7757
     4.3668   5.0067   5.8518   6.0534   7.0596

     occupation numbers 
     1.0000   1.0000   1.0000   1.0000   1.0000   1.0000   1.0000   1.0000
     1.0000   1.0000   1.0000   1.0000   1.0000   1.0000   1.0000   1.0000
     1.0000   1.0000   1.0000   1.0000   1.0000

          k =-0.5000-0.0000 0.2926 (  3683 PWs)   bands (ev):

  -115.3333 -69.6943 -69.6939 -69.6911 -64.7737 -31.7684 -31.7589 -31.7497
    -9.2125  -8.6796   2.1912   2.2385   2.5199   2.7704   3.0302   3.7415
     4.6016   4.9633   5.6404   6.3637   7.6054

     occupation numbers 
     1.0000   1.0000   1.0000   1.0000   1.0000   1.0000   1.0000   1.0000
     1.0000   1.0000   1.0000   1.0000   1.0000   1.0000   1.0000   1.0000
     1.0000   1.0000   1.0000   1.0000   1.0000

          k =-0.5000 0.0000-0.3901 (  3676 PWs)   bands (ev):

  -115.3333 -69.6943 -69.6939 -69.6911 -64.7737 -31.7685 -31.7588 -31.7497
    -9.1931  -8.6812   2.1380   2.1804   2.4238   2.7686   3.0088   3.7368
     4.7338   4.9455   5.5125   6.4811   7.8143

     occupation numbers 
     1.0000   1.0000   1.0000   1.0000   1.0000   1.0000   1.0000   1.0000
     1.0000   1.0000   1.0000   1.0000   1.0000   1.0000   1.0000   1.0000
     1.0000   1.0000   1.0000   1.0000   1.0000

          k =-0.5000 0.0000-0.2926 (  3683 PWs)   bands (ev):

  -115.3333 -69.6943 -69.6939 -69.6911 -64.7737 -31.7684 -31.7589 -31.7497
    -9.2125  -8.6796   2.1912   2.2385   2.5199   2.7704   3.0302   3.7415
     4.6016   4.9633   5.6404   6.3637   7.6054

     occupation numbers 
     1.0000   1.0000   1.0000   1.0000   1.0000   1.0000   1.0000   1.0000
     1.0000   1.0000   1.0000   1.0000   1.0000   1.0000   1.0000   1.0000
     1.0000   1.0000   1.0000   1.0000   1.0000

          k =-0.5000 0.0000-0.1951 (  3678 PWs)   bands (ev):

  -115.3333 -69.6943 -69.6938 -69.6911 -64.7737 -31.7680 -31.7589 -31.7497
    -9.2572  -8.6775   2.2384   2.3890   2.7702   2.8805   3.0896   3.7757
     4.3668   5.0067   5.8518   6.0534   7.0596

     occupation numbers 
     1.0000   1.0000   1.0000   1.0000   1.0000   1.0000   1.0000   1.0000
     1.0000   1.0000   1.0000   1.0000   1.0000   1.0000   1.0000   1.0000
     1.0000   1.0000   1.0000   1.0000   1.0000

          k =-0.5000 0.0000-0.0975 (  3683 PWs)   bands (ev):

  -115.3333 -69.6943 -69.6939 -69.6911 -64.7737 -31.7676 -31.7589 -31.7497
    -9.2994  -8.6775   2.2417   2.5782   2.7709   3.1504   3.2954   4.0018
     4.1825   5.0571   5.5036   6.0610   6.4598

     occupation numbers 
     1.0000   1.0000   1.0000   1.0000   1.0000   1.0000   1.0000   1.0000
     1.0000   1.0000   1.0000   1.0000   1.0000   1.0000   1.0000   1.0000
     1.0000   1.0000   1.0000   1.0000   1.0000

          k =-0.5000 0.1443 0.0000 (  3686 PWs)   bands (ev):

  -115.3333 -69.6944 -69.6938 -69.6911 -64.7737 -31.7674 -31.7607 -31.7480
    -9.3119  -8.6815   2.1672   2.6686   2.7519   3.2131   3.3548   4.1217
     4.6601   4.8735   4.9942   6.1974   6.3500

     occupation numbers 
     1.0000   1.0000   1.0000   1.0000   1.0000   1.0000   1.0000   1.0000
     1.0000   1.0000   1.0000   1.0000   1.0000   1.0000   1.0000   1.0000
     1.0000   1.0000   1.0000   1.0000   1.0000

          k =-0.5000 0.1443 0.0975 (  3686 PWs)   bands (ev):

  -115.3333 -69.6944 -69.6938 -69.6911 -64.7737 -31.7676 -31.7606 -31.7480
    -9.2954  -8.6805   2.1652   2.5669   2.7599   3.1839   3.2769   3.8321
     4.5050   4.9637   5.4296   6.2772   6.4667

     occupation numbers 
     1.0000   1.0000   1.0000   1.0000   1.0000   1.0000   1.0000   1.0000
     1.0000   1.0000   1.0000   1.0000   1.0000   1.0000   1.0000   1.0000
     1.0000   1.0000   1.0000   1.0000   1.0000

          k =-0.5000 0.1443 0.1951 (  3689 PWs)   bands (ev):

  -115.3333 -69.6944 -69.6938 -69.6911 -64.7737 -31.7680 -31.7606 -31.7480
    -9.2542  -8.6790   2.1338   2.3960   2.7621   2.8867   3.1253   3.6097
     4.6118   5.0123   5.8868   6.1440   7.0360

     occupation numbers 
     1.0000   1.0000   1.0000   1.0000   1.0000   1.0000   1.0000   1.0000
     1.0000   1.0000   1.0000   1.0000   1.0000   1.0000   1.0000   1.0000
     1.0000   1.0000   1.0000   1.0000   1.0000

          k =-0.5000 0.1443 0.2926 (  3690 PWs)   bands (ev):

  -115.3333 -69.6944 -69.6938 -69.6911 -64.7737 -31.7684 -31.7606 -31.7480
    -9.2108  -8.6795   2.0639   2.2670   2.5120   2.7674   3.0704   3.5780
     4.7187   5.1417   5.8501   6.2729   7.5340

     occupation numbers 
     1.0000   1.0000   1.0000   1.0000   1.0000   1.0000   1.0000   1.0000
     1.0000   1.0000   1.0000   1.0000   1.0000   1.0000   1.0000   1.0000
     1.0000   1.0000   1.0000   1.0000   1.0000

          k =-0.5000 0.1443-0.3901 (  3684 PWs)   bands (ev):

  -115.3333 -69.6943 -69.6938 -69.6911 -64.7737 -31.7685 -31.7606 -31.7480
    -9.1920  -8.6804   2.0425   2.1645   2.4236   2.7685   3.0487   3.5721
     4.7510   5.2608   5.7118   6.3852   7.7137

     occupation numbers 
     1.0000   1.0000   1.0000   1.0000   1.0000   1.0000   1.0000   1.0000
     1.0000   1.0000   1.0000   1.0000   1.0000   1.0000   1.0000   1.0000
     1.0000   1.0000   1.0000   1.0000   1.0000

          k =-0.5000 0.1443-0.2926 (  3690 PWs)   bands (ev):

  -115.3333 -69.6944 -69.6938 -69.6911 -64.7737 -31.7684 -31.7606 -31.7480
    -9.2107  -8.6796   2.0681   2.2567   2.5204   2.7679   3.0696   3.5719
     4.7256   5.1395   5.8496   6.2811   7.5223

     occupation numbers 
     1.0000   1.0000   1.0000   1.0000   1.0000   1.0000   1.0000   1.0000
     1.0000   1.0000   1.0000   1.0000   1.0000   1.0000   1.0000   1.0000
     1.0000   1.0000   1.0000   1.0000   1.0000

          k =-0.5000 0.1443-0.1951 (  3689 PWs)   bands (ev):

  -115.3333 -69.6944 -69.6938 -69.6911 -64.7737 -31.7680 -31.7606 -31.7480
    -9.2542  -8.6791   2.1226   2.4132   2.7610   2.8919   3.1249   3.5917
     4.6122   5.0192   5.9074   6.1420   7.0150

     occupation numbers 
     1.0000   1.0000   1.0000   1.0000   1.0000   1.0000   1.0000   1.0000
     1.0000   1.0000   1.0000   1.0000   1.0000   1.0000   1.0000   1.0000
     1.0000   1.0000   1.0000   1.0000   1.0000

          k =-0.5000 0.1443-0.0975 (  3686 PWs)   bands (ev):

  -115.3333 -69.6944 -69.6938 -69.6911 -64.7737 -31.7676 -31.7606 -31.7480
    -9.2954  -8.6805   2.1559   2.5830   2.7574   3.1836   3.2939   3.8017
     4.4833   4.9811   5.4745   6.2500   6.4605

     occupation numbers 
     1.0000   1.0000   1.0000   1.0000   1.0000   1.0000   1.0000   1.0000
     1.0000   1.0000   1.0000   1.0000   1.0000   1.0000   1.0000   1.0000
     1.0000   1.0000   1.0000   1.0000   1.0000

          k =-0.5000-0.8660 0.0000 (  3670 PWs)   bands (ev):

  -115.3333 -69.6944 -69.6937 -69.6911 -64.7737 -31.7674 -31.7620 -31.7466
    -9.3075  -8.6851   2.0990   2.6588   2.7449   3.2401   3.3288   4.1357
     4.7407   4.8096   4.9959   6.1980   6.5291

     occupation numbers 
     1.0000   1.0000   1.0000   1.0000   1.0000   1.0000   1.0000   1.0000
     1.0000   1.0000   1.0000   1.0000   1.0000   1.0000   1.0000   1.0000
     1.0000   1.0000   1.0000   1.0000   1.0000

          k =-0.5000-0.8660 0.0975 (  3686 PWs)   bands (ev):

  -115.3333 -69.6944 -69.6937 -69.6911 -64.7737 -31.7676 -31.7620 -31.7466
    -9.2914  -8.6835   2.0867   2.5702   2.7454   3.2165   3.2770   3.7518
     4.5871   5.0626   5.3493   6.4273   6.4808

     occupation numbers 
     1.0000   1.0000   1.0000   1.0000   1.0000   1.0000   1.0000   1.0000
     1.0000   1.0000   1.0000   1.0000   1.0000   1.0000   1.0000   1.0000
     1.0000   1.0000   1.0000   1.0000   1.0000

          k =-0.5000-0.8660 0.1951 (  3692 PWs)   bands (ev):

  -115.3333 -69.6944 -69.6937 -69.6911 -64.7737 -31.7680 -31.7620 -31.7466
    -9.2513  -8.6807   2.0418   2.4055   2.7469   2.8920   3.1633   3.5049
     4.6497   5.2395   5.7690   6.3447   6.9711

     occupation numbers 
     1.0000   1.0000   1.0000   1.0000   1.0000   1.0000   1.0000   1.0000
     1.0000   1.0000   1.0000   1.0000   1.0000   1.0000   1.0000   1.0000
     1.0000   1.0000   1.0000   1.0000   1.0000

          k =-0.5000-0.8660 0.2926 (  3678 PWs)   bands (ev):

  -115.3333 -69.6944 -69.6937 -69.6911 -64.7737 -31.7684 -31.7619 -31.7466
    -9.2091  -8.6795   1.9816   2.2516   2.5143   2.7486   3.1144   3.4797
     4.6958   5.4684   6.0556   6.1522   7.4237

     occupation numbers 
     1.0000   1.0000   1.0000   1.0000   1.0000   1.0000   1.0000   1.0000
     1.0000   1.0000   1.0000   1.0000   1.0000   1.0000   1.0000   1.0000
     1.0000   1.0000   1.0000   1.0000   1.0000

          k =-0.5000-0.8660-0.3901 (  3680 PWs)   bands (ev):

  -115.3333 -69.6944 -69.6937 -69.6911 -64.7737 -31.7685 -31.7619 -31.7466
    -9.1909  -8.6796   1.9679   2.1371   2.4234   2.7494   3.0951   3.4767
     4.7088   5.6145   6.0200   6.1697   7.5807

     occupation numbers 
     1.0000   1.0000   1.0000   1.0000   1.0000   1.0000   1.0000   1.0000
     1.0000   1.0000   1.0000   1.0000   1.0000   1.0000   1.0000   1.0000
     1.0000   1.0000   1.0000   1.0000   1.0000

     highest occupied level (ev):     7.8751

!    total energy              =    -651.12730583 Ry
     Harris-Foulkes estimate   =    -651.12730568 Ry
     estimated scf accuracy    <       0.00000041 Ry

     The total energy is the sum of the following terms:

     one-electron contribution =    -523.68870039 Ry
     hartree contribution      =     275.98191257 Ry
     xc contribution           =     -73.09956814 Ry
     ewald contribution        =    -330.32094988 Ry

     convergence has been achieved in   7 iterations

     Forces acting on atoms (cartesian axes, Ry/au):

     atom    1 type  3   force =    -0.00000112    0.00000015   -0.00773915
     atom    2 type  3   force =    -0.00000104   -0.00000006   -0.00489425
     atom    3 type  2   force =     0.00000265    0.00000236    0.00622674
     atom    4 type  1   force =    -0.00000049   -0.00000245    0.00640666
     The non-local contrib.  to forces
     atom    1 type  3   force =    -0.00000022   -0.00000181    0.13878433
     atom    2 type  3   force =     0.00000048    0.00000139    0.00995802
     atom    3 type  2   force =     0.00000188   -0.00000422    0.25322421
     atom    4 type  1   force =     0.00000115   -0.00000108    0.10255840
     The ionic contribution  to forces
     atom    1 type  3   force =    -0.00000526    0.00002944   -3.07808441
     atom    2 type  3   force =    -0.00001134    0.00001090    0.88182895
     atom    3 type  2   force =     0.00001040   -0.00002069    1.85958406
     atom    4 type  1   force =     0.00000620   -0.00001965    0.33667141
     The local contribution  to forces
     atom    1 type  3   force =     0.00000424   -0.00002750    2.93236060
     atom    2 type  3   force =     0.00001108   -0.00001045   -0.89684548
     atom    3 type  2   force =    -0.00001296    0.00002467   -2.10629387
     atom    4 type  1   force =    -0.00000685    0.00001948   -0.43299395
     The core correction contribution to forces
     atom    1 type  3   force =     0.00000000    0.00000000   -0.00083032
     atom    2 type  3   force =    -0.00000000   -0.00000001    0.00029568
     atom    3 type  2   force =     0.00000000    0.00000000    0.00000000
     atom    4 type  1   force =     0.00000000    0.00000000    0.00000000
     The Hubbard contrib.    to forces
     atom    1 type  3   force =     0.00000000    0.00000000    0.00000000
     atom    2 type  3   force =     0.00000000    0.00000000    0.00000000
     atom    3 type  2   force =     0.00000000    0.00000000    0.00000000
     atom    4 type  1   force =     0.00000000    0.00000000    0.00000000
     The SCF correction term to forces
     atom    1 type  3   force =     0.00000000    0.00000000    0.00000000
     atom    2 type  3   force =     0.00000000    0.00000000    0.00000000
     atom    3 type  2   force =     0.00000000    0.00000000    0.00000000
     atom    4 type  1   force =     0.00000000    0.00000000    0.00000000

     Total force =     0.000000     Total SCF correction =     0.000000


     Computing stress (Cartesian axis) and pressure

          total   stress  (Ry/bohr**3)                   (kbar)     P=    7.70
   0.00005490  -0.00000000  -0.00000000          8.08     -0.00     -0.00
  -0.00000000   0.00005490  -0.00000001         -0.00      8.08     -0.00
  -0.00000000  -0.00000001   0.00004727         -0.00     -0.00      6.95

     kinetic stress (kbar)  27669.19      0.00     -0.00
                                0.00  27669.19     -0.00
                               -0.00     -0.00  27794.79

     local   stress (kbar)  -8690.73     -0.01     -0.00
                               -0.01  -8690.78     -0.03
                               -0.00     -0.03 -11402.18

     nonloc. stress (kbar)   1856.02      0.00      0.00
                                0.00   1856.02      0.00
                                0.00      0.00   1813.26

     hartree stress (kbar)  44071.09      0.00      0.00
                                0.00  44071.11      0.01
                                0.00      0.01  45044.39

     exc-cor stress (kbar) -10948.36      0.00      0.00
                                0.00 -10948.36      0.00
                                0.00      0.00 -10948.83

     corecor stress (kbar)   -260.77     -0.00      0.00
                               -0.00   -260.77      0.00
                                0.00      0.00   -260.99

     ewald   stress (kbar) -53688.35      0.01     -0.00
                                0.01 -53688.32      0.02
                               -0.00      0.02 -52033.49

     hubbard stress (kbar)      0.00      0.00      0.00
                                0.00      0.00      0.00
                                0.00      0.00      0.00

     london  stress (kbar)      0.00      0.00      0.00
                                0.00      0.00      0.00
                                0.00      0.00      0.00

     DFT-D3  stress (kbar)      0.00      0.00      0.00
                                0.00      0.00      0.00
                                0.00      0.00      0.00

     XDM     stress (kbar)      0.00      0.00      0.00
                                0.00      0.00      0.00
                                0.00      0.00      0.00

     dft-nl  stress (kbar)      0.00      0.00      0.00
                                0.00      0.00      0.00
                                0.00      0.00      0.00

     TS-vdW  stress (kbar)      0.00      0.00      0.00
                                0.00      0.00      0.00
                                0.00      0.00      0.00



     Writing output data file ZnO.save/
 
     init_run     :      0.49s CPU      1.14s WALL (       1 calls)
     electrons    :      5.71s CPU      6.42s WALL (       1 calls)
     forces       :      0.16s CPU      0.23s WALL (       1 calls)
     stress       :      0.28s CPU      0.30s WALL (       1 calls)

     Called by init_run:
     wfcinit      :      0.30s CPU      0.76s WALL (       1 calls)
     wfcinit:atom :      0.00s CPU      0.00s WALL (      65 calls)
     wfcinit:wfcr :      0.29s CPU      0.74s WALL (      65 calls)
     potinit      :      0.07s CPU      0.09s WALL (       1 calls)
     hinit0       :      0.10s CPU      0.24s WALL (       1 calls)

     Called by electrons:
     c_bands      :      4.72s CPU      5.08s WALL (       7 calls)
     sum_band     :      0.69s CPU      0.73s WALL (       7 calls)
     v_of_rho     :      0.25s CPU      0.26s WALL (       8 calls)
     v_h          :      0.00s CPU      0.00s WALL (       8 calls)
     v_xc         :      0.31s CPU      0.32s WALL (      10 calls)
     newd         :      0.05s CPU      0.07s WALL (       8 calls)
     mix_rho      :      0.01s CPU      0.03s WALL (       7 calls)

     Called by c_bands:
     init_us_2    :      0.08s CPU      0.09s WALL (    1105 calls)
     cegterg      :      4.38s CPU      4.62s WALL (     455 calls)

     Called by sum_band:
     sum_band:bec :      0.00s CPU      0.01s WALL (     455 calls)
     addusdens    :      0.04s CPU      0.05s WALL (       7 calls)

     Called by *egterg:
     h_psi        :      2.56s CPU      2.66s WALL (    1662 calls)
     s_psi        :      0.09s CPU      0.10s WALL (    1662 calls)
     g_psi        :      0.01s CPU      0.01s WALL (    1142 calls)
     cdiaghg      :      1.29s CPU      1.81s WALL (    1597 calls)
     cegterg:over :      0.33s CPU      0.39s WALL (    1142 calls)
     cegterg:upda :      0.16s CPU      0.17s WALL (    1142 calls)
     cegterg:last :      0.09s CPU      0.09s WALL (     455 calls)
     cdiaghg:chol :      0.09s CPU      0.31s WALL (    1597 calls)
     cdiaghg:inve :      0.02s CPU      0.04s WALL (    1597 calls)
     cdiaghg:para :      0.12s CPU      0.14s WALL (    3194 calls)

     Called by h_psi:
     h_psi:pot    :      2.55s CPU      2.65s WALL (    1662 calls)
     h_psi:calbec :      0.17s CPU      0.18s WALL (    1662 calls)
     vloc_psi     :      2.28s CPU      2.36s WALL (    1662 calls)
     add_vuspsi   :      0.10s CPU      0.10s WALL (    1662 calls)

     General routines
     calbec       :      0.27s CPU      0.29s WALL (    2442 calls)
     fft          :      0.05s CPU      0.09s WALL (     127 calls)
     ffts         :      0.00s CPU      0.00s WALL (      15 calls)
     fftw         :      2.60s CPU      2.70s WALL (   60339 calls)
     interpolate  :      0.00s CPU      0.01s WALL (       8 calls)
 
     Parallel routines
     fft_scatt_xy :      0.36s CPU      0.38s WALL (   60481 calls)
     fft_scatt_yz :      1.46s CPU      1.52s WALL (   60481 calls)
 
     PWSCF        :      6.93s CPU     10.03s WALL

 
   This run was terminated on:  23:25:40  15Jun2022            

=------------------------------------------------------------------------------=
   JOB DONE.
=------------------------------------------------------------------------------=
