
     Program PWSCF v.6.4.1 starts on 15Jul2022 at  2:10:43 

     This program is part of the open-source Quantum ESPRESSO suite
     for quantum simulation of materials; please cite
         "P. Giannozzi et al., J. Phys.:Condens. Matter 21 395502 (2009);
         "P. Giannozzi et al., J. Phys.:Condens. Matter 29 465901 (2017);
          URL http://www.quantum-espresso.org", 
     in publications or presentations arising from this work. More details at
     http://www.quantum-espresso.org/quote

     Parallel version (MPI), running on   128 processors

     MPI processes distributed on     2 nodes
     R & G space division:  proc/nbgrp/npool/nimage =     128
     Waiting for input...
     Reading input from standard input
Warning: card &IONS ignored
Warning: card   UPSCALE           = 100.D0, ignored
Warning: card / ignored
Warning: card &CELL ignored
Warning: card   CELL_DYNAMICS     = 'BFGS' ignored
Warning: card   PRESS_CONV_THR    = 0.5D0 ignored
Warning: card   CELL_DOFREE = 'ALL' ignored
Warning: card / ignored

     Current dimensions of program PWSCF are:
     Max number of different atomic species (ntypx) = 10
     Max number of k-points (npk) =  40000
     Max angular momentum in pseudopotentials (lmaxx) =  3

     Atomic positions and unit cell read from directory:
     ./temp/ZnO.save/
 

     Subspace diagonalization in iterative solution of the eigenvalue problem:
     one sub-group per band group will be used
     scalapack distributed-memory algorithm (size of sub-group:  8*  8 procs)

 
     Parallelization info
     --------------------
     sticks:   dense  smooth     PW     G-vecs:    dense   smooth      PW
     Min          91      43     12                 8574     2848     422
     Max          92      44     13                 8580     2856     427
     Sum       11681    5607   1573              1097767   365219   54375
 


     bravais-lattice index     =            0
     lattice parameter (alat)  =      18.3962  a.u.
     unit-cell volume          =    5813.6823 (a.u.)^3
     number of atoms/cell      =           72
     number of atomic types    =            3
     number of electrons       =       836.00
     number of Kohn-Sham states=          418
     kinetic-energy cutoff     =      60.0000  Ry
     charge density cutoff     =     500.0000  Ry
     Exchange-correlation      = SLA  PW   PSX  PSC ( 1  4 10  8 0 0)
     Using LIBXC version       =    4   3   4

     celldm(1)=  18.396228  celldm(2)=   0.000000  celldm(3)=   0.000000
     celldm(4)=   0.000000  celldm(5)=   0.000000  celldm(6)=   0.000000

     crystal axes: (cart. coord. in units of alat)
               a(1) = (   0.999999  -0.001169  -0.000248 )  
               a(2) = (  -0.501010   0.867329   0.000213 )  
               a(3) = (  -0.000266   0.000110   1.077395 )  

     reciprocal axes: (cart. coord. in units 2 pi/alat)
               b(1) = (  1.000676  0.578038  0.000188 )  
               b(2) = (  0.001348  1.153744 -0.000117 )  
               b(3) = (  0.000230 -0.000095  0.928165 )  


     PseudoPot. # 1 for Zn read from file:
     ./GBRV_PBEsol/zn_pbesol_v1.uspp.F.UPF
     MD5 check sum: 7d8615e52efe7c1e2b1899de8658bae2
     Pseudo is Ultrasoft, Zval = 20.0
     Generated by new atomic code, or converted to UPF format
     Using radial grid of  943 points,  6 beta functions with: 
                l(1) =   0
                l(2) =   0
                l(3) =   1
                l(4) =   1
                l(5) =   2
                l(6) =   2
     Q(r) pseudized with  8 coefficients,  rinner =    1.100   1.100   1.100
                                                       1.100   1.100

     PseudoPot. # 2 for O  read from file:
     ./GBRV_PBEsol/o_pbesol_v1.2.uspp.F.UPF
     MD5 check sum: 501638753501ef6325af9037351f7734
     Pseudo is Ultrasoft + core correction, Zval =  6.0
     Generated by new atomic code, or converted to UPF format
     Using radial grid of  737 points,  5 beta functions with: 
                l(1) =   0
                l(2) =   0
                l(3) =   1
                l(4) =   1
                l(5) =   2
     Q(r) pseudized with  8 coefficients,  rinner =    0.900   0.900   0.900
                                                       0.900   0.900

     PseudoPot. # 3 for Mg read from file:
     ./GBRV_PBEsol/mg_pbesol_v1.4.uspp.F.UPF
     MD5 check sum: 4059f37963cf5867752dbf5ab2400678
     Pseudo is Ultrasoft, Zval = 10.0
     Generated by new atomic code, or converted to UPF format
     Using radial grid of  821 points,  7 beta functions with: 
                l(1) =   0
                l(2) =   0
                l(3) =   0
                l(4) =   1
                l(5) =   1
                l(6) =   2
                l(7) =   2
     Q(r) pseudized with  8 coefficients,  rinner =    1.200   1.200   1.200
                                                       1.200   1.200

     atomic species   valence    mass     pseudopotential
        Zn            20.00    65.38000     Zn( 1.00)
        O              6.00    15.99900     O ( 1.00)
        Mg            10.00    24.30500     Mg( 1.00)

     No symmetry found


                                    s                        frac. trans.

      isym =  1     identity                                     

 cryst.   s( 1) = (     1          0          0      )
                  (     0          1          0      )
                  (     0          0          1      )

 cart.    s( 1) = (  1.0000000  0.0000000 -0.0000000 )
                  ( -0.0000000  1.0000000  0.0000000 )
                  ( -0.0000000 -0.0000000  1.0000000 )


   Cartesian axes

     site n.     atom                  positions (alat units)
         1           Zn  tau(   1) = (   0.1676569   0.0963708   0.2079608  )
         2           Zn  tau(   2) = (   0.1665717   0.0967418   0.7467103  )
         3           Zn  tau(   3) = (  -0.0008564   0.3857754   0.2078645  )
         4           Zn  tau(   4) = (  -0.0005548   0.3847482   0.7461706  )
         5           Zn  tau(   5) = (  -0.1675123   0.6738831   0.2077881  )
         6           Zn  tau(   6) = (  -0.1679831   0.6745962   0.7461103  )
         7           Zn  tau(   7) = (   0.4990150   0.0946423   0.2077623  )
         8           Mg  tau(   8) = (   0.4996508   0.0949900   0.7487991  )
         9           Zn  tau(   9) = (   0.3324273   0.3851136   0.2080073  )
        10           Mg  tau(  10) = (   0.3320408   0.3856560   0.7487111  )
        11           Mg  tau(  11) = (   0.1648381   0.6745554   0.2092959  )
        12           Zn  tau(  12) = (   0.1636915   0.6729213   0.7462471  )
        13           Zn  tau(  13) = (   0.8315585   0.0917398   0.2082985  )
        14           Zn  tau(  14) = (   0.8340734   0.0976300   0.7469816  )
        15           Mg  tau(  15) = (   0.6648966   0.3822586   0.2083388  )
        16           Zn  tau(  16) = (   0.6661096   0.3845875   0.7454326  )
        17           Mg  tau(  17) = (   0.4971322   0.6740286   0.2090162  )
        18           Zn  tau(  18) = (   0.5013872   0.6734737   0.7451460  )
        19           Zn  tau(  19) = (  -0.0001196   0.1932545   0.4768425  )
        20           Mg  tau(  20) = (   0.0006772   0.1932285   1.0187779  )
        21           Mg  tau(  21) = (  -0.1663475   0.4823269   0.4776385  )
        22           Mg  tau(  22) = (  -0.1665913   0.4822045   1.0158429  )
        23           Zn  tau(  23) = (  -0.3330869   0.7716234   0.4767566  )
        24           Mg  tau(  24) = (  -0.3333677   0.7717093   1.0171410  )
        25           Zn  tau(  25) = (   0.3339553   0.1931094   0.4773295  )
        26           Zn  tau(  26) = (   0.3321334   0.1922137   1.0159534  )
        27           Zn  tau(  27) = (   0.1665689   0.4800464   0.4772569  )
        28           Zn  tau(  28) = (   0.1647879   0.4823634   1.0167206  )
        29           Zn  tau(  29) = (  -0.0023201   0.7718874   0.4776310  )
        30           Zn  tau(  30) = (  -0.0007853   0.7690259   1.0166566  )
        31           Zn  tau(  31) = (   0.6656887   0.1912131   0.4774843  )
        32           Zn  tau(  32) = (   0.6669141   0.1927800   1.0163259  )
        33           Zn  tau(  33) = (   0.4985907   0.4801539   0.4762066  )
        34           Zn  tau(  34) = (   0.5008051   0.4821329   1.0160206  )
        35           Mg  tau(  35) = (   0.3321078   0.7713544   0.4796203  )
        36           Zn  tau(  36) = (   0.3322317   0.7689387   1.0142108  )
        37           O   tau(  37) = (   0.1665568   0.0959158   0.0040079  )
        38           O   tau(  38) = (   0.1665078   0.0966408   0.5422386  )
        39           O   tau(  39) = (  -0.0011581   0.3853328   0.0037113  )
        40           O   tau(  40) = (  -0.0006113   0.3852017   0.5423111  )
        41           O   tau(  41) = (  -0.1678803   0.6736611   0.0034031  )
        42           O   tau(  42) = (  -0.1678743   0.6743355   0.5424007  )
        43           O   tau(  43) = (   0.4999290   0.0954584   0.0028940  )
        44           O   tau(  44) = (   0.4994371   0.0959708   0.5448152  )
        45           O   tau(  45) = (   0.3331255   0.3854667   0.0028058  )
        46           O   tau(  46) = (   0.3327846   0.3850085   0.5446784  )
        47           O   tau(  47) = (   0.1663284   0.6741632   0.0055425  )
        48           O   tau(  48) = (   0.1650132   0.6739168   0.5413980  )
        49           O   tau(  49) = (   0.8336393   0.0945546   0.0034646  )
        50           O   tau(  50) = (   0.8332436   0.0962877   0.5428667  )
        51           O   tau(  51) = (   0.6673725   0.3849849   0.0047114  )
        52           O   tau(  52) = (   0.6663650   0.3846630   0.5406254  )
        53           O   tau(  53) = (   0.4999402   0.6745567   0.0048805  )
        54           O   tau(  54) = (   0.4993166   0.6737526   0.5406890  )
        55           O   tau(  55) = (  -0.0009107   0.1919944   0.2719261  )
        56           O   tau(  56) = (   0.0005478   0.1930222   0.8145085  )
        57           O   tau(  57) = (  -0.1686312   0.4808492   0.2736054  )
        58           O   tau(  58) = (  -0.1672826   0.4817788   0.8114920  )
        59           O   tau(  59) = (  -0.3348041   0.7705793   0.2720344  )
        60           O   tau(  60) = (  -0.3338231   0.7716072   0.8132032  )
        61           O   tau(  61) = (   0.3336033   0.1928129   0.2734264  )
        62           O   tau(  62) = (   0.3336972   0.1929475   0.8115669  )
        63           O   tau(  63) = (   0.1659153   0.4816047   0.2729700  )
        64           O   tau(  64) = (   0.1655895   0.4814820   0.8124668  )
        65           O   tau(  65) = (  -0.0016701   0.7701934   0.2734595  )
        66           O   tau(  66) = (  -0.0012273   0.7702000   0.8124925  )
        67           O   tau(  67) = (   0.6659733   0.1903674   0.2731507  )
        68           O   tau(  68) = (   0.6663073   0.1922482   0.8118933  )
        69           O   tau(  69) = (   0.4995958   0.4810952   0.2720000  )
        70           O   tau(  70) = (   0.4997456   0.4813185   0.8115663  )
        71           O   tau(  71) = (   0.3313531   0.7683097   0.2759947  )
        72           O   tau(  72) = (   0.3325563   0.7699328   0.8092985  )

   Crystallographic axes

     site n.     atom                  positions (cryst. coord.)
         1           Zn  tau(   1) = (  0.2235154  0.1113890  0.1930514  )
         2           Zn  tau(   2) = (  0.2227450  0.1117526  0.6930995  )
         3           Zn  tau(   3) = (  0.2221749  0.4450607  0.1928958  )
         4           Zn  tau(   4) = (  0.2219841  0.4438131  0.6925328  )
         5           Zn  tau(   5) = (  0.2219434  0.7772385  0.1927591  )
         6           Zn  tau(   6) = (  0.2219857  0.7779977  0.6924108  )
         7           Zn  tau(   7) = (  0.5540984  0.1098416  0.1929435  )
         8           Mg  tau(   8) = (  0.5550373  0.1101804  0.6951151  )
         9           Zn  tau(   9) = (  0.5553016  0.4447466  0.1931050  )
        10           Mg  tau(  10) = (  0.5553298  0.4453086  0.6949672  )
        11           Mg  tau(  11) = (  0.5549075  0.7784622  0.1942350  )
        12           Zn  tau(  12) = (  0.5529165  0.7765126  0.6926142  )
        13           Zn  tau(  13) = (  0.8851891  0.1069412  0.1935179  )
        14           Zn  tau(  14) = (  0.8912117  0.1136774  0.6935048  )
        15           Mg  tau(  15) = (  0.8863454  0.4419009  0.1934895  )
        16           Zn  tau(  16) = (  0.8890064  0.4445267  0.6920012  )
        17           Mg  tau(  17) = (  0.8871218  0.7783025  0.1940519  )
        18           Zn  tau(  18) = (  0.8911598  0.7776054  0.6916698  )
        19           Zn  tau(  19) = (  0.1116783  0.2229103  0.4425701  )
        20           Mg  tau(  20) = (  0.1125625  0.2228180  0.9455758  )
        21           Mg  tau(  21) = (  0.1124330  0.5562017  0.4432433  )
        22           Mg  tau(  22) = (  0.1122194  0.5559972  0.9427857  )
        23           Zn  tau(  23) = (  0.1128050  0.8897511  0.4423589  )
        24           Mg  tau(  24) = (  0.1126752  0.8897867  0.9439247  )
        25           Zn  tau(  25) = (  0.4458954  0.2231933  0.4430990  )
        26           Zn  tau(  26) = (  0.4436558  0.2220945  0.9430306  )
        27           Zn  tau(  27) = (  0.4442562  0.5540196  0.4429659  )
        28           Zn  tau(  28) = (  0.4439147  0.5566274  0.9436766  )
        29           Zn  tau(  29) = (  0.4439483  0.8905017  0.4432466  )
        30           Zn  tau(  30) = (  0.4439314  0.8871393  0.9435519  )
        31           Zn  tau(  31) = (  0.7767570  0.2214528  0.4433192  )
        32           Zn  tau(  32) = (  0.7789903  0.2231992  0.9434533  )
        33           Zn  tau(  33) = (  0.7765646  0.5545914  0.4420675  )
        34           Zn  tau(  34) = (  0.7800258  0.5568146  0.9431042  )
        35           Mg  tau(  35) = (  0.7782947  0.8903375  0.4451700  )
        36           Zn  tau(  36) = (  0.7771228  0.8874880  0.9413584  )
        37           O   tau(  37) = (  0.2221132  0.1108864  0.0037492  )
        38           O   tau(  38) = (  0.2225843  0.1116599  0.5033160  )
        39           O   tau(  39) = (  0.2215789  0.4445735  0.0034079  )
        40           O   tau(  40) = (  0.2221514  0.4443601  0.5033175  )
        41           O   tau(  41) = (  0.2214085  0.7770059  0.0030561  )
        42           O   tau(  42) = (  0.2219056  0.7777209  0.5033347  )
        43           O   tau(  43) = (  0.5554463  0.1108083  0.0027920  )
        44           O   tau(  44) = (  0.5553520  0.1113355  0.5057842  )
        45           O   tau(  45) = (  0.5561657  0.4451788  0.0026443  )
        46           O   tau(  46) = (  0.5556616  0.4445864  0.5055914  )
        47           O   tau(  47) = (  0.5561338  0.7780355  0.0051187  )
        48           O   tau(  48) = (  0.5547760  0.7776868  0.5024807  )
        49           O   tau(  49) = (  0.8888599  0.1102155  0.0033986  )
        50           O   tau(  50) = (  0.8895671  0.1121515  0.5040524  )
        51           O   tau(  51) = (  0.8903607  0.4450735  0.0044899  )
        52           O   tau(  52) = (  0.8892671  0.4446381  0.5019064  )
        53           O   tau(  53) = (  0.8901987  0.7789395  0.0045809  )
        54           O   tau(  54) = (  0.8892105  0.7779482  0.5018995  )
        55           O   tau(  55) = (  0.1101199  0.2214794  0.2523738  )
        56           O   tau(  56) = (  0.1122754  0.2226038  0.7559800  )
        57           O   tau(  57) = (  0.1092553  0.5545177  0.2538666  )
        58           O   tau(  58) = (  0.1112432  0.5555291  0.7531143  )
        59           O   tau(  59) = (  0.1104447  0.8885682  0.2523427  )
        60           O   tau(  60) = (  0.1121222  0.8896922  0.7546367  )
        61           O   tau(  61) = (  0.4453335  0.2228747  0.2538432  )
        62           O   tau(  62) = (  0.4456063  0.2229671  0.7533264  )
        63           O   tau(  63) = (  0.4444646  0.5558404  0.2533536  )
        64           O   tau(  64) = (  0.4441690  0.5556354  0.7540956  )
        65           O   tau(  65) = (  0.4435812  0.8885719  0.2537420  )
        66           O   tau(  66) = (  0.4441294  0.8885171  0.7540537  )
        67           O   tau(  67) = (  0.7765146  0.2205014  0.2536641  )
        68           O   tau(  68) = (  0.7780373  0.2226088  0.7537060  )
        69           O   tau(  69) = (  0.7780760  0.5557026  0.2525301  )
        70           O   tau(  70) = (  0.7784564  0.5558974  0.7533367  )
        71           O   tau(  71) = (  0.7757413  0.8868475  0.2561720  )
        72           O   tau(  72) = (  0.7779837  0.8886594  0.7511660  )

     number of k points=    80
                       cart. coord. in units 2pi/alat
        k(    1) = (   0.0000000   0.0000000   0.0000000), wk =   0.0156250
        k(    2) = (   0.0000329  -0.0000136   0.1325950), wk =   0.0156250
        k(    3) = (   0.0000657  -0.0000271   0.2651900), wk =   0.0156250
        k(    4) = (   0.0000986  -0.0000407   0.3977850), wk =   0.0156250
        k(    5) = (   0.0001315  -0.0000542   0.5303800), wk =   0.0156250
        k(    6) = (   0.0001643  -0.0000678   0.6629750), wk =   0.0156250
        k(    7) = (   0.0001972  -0.0000813   0.7955700), wk =   0.0156250
        k(    8) = (   0.0002301  -0.0000949   0.9281650), wk =   0.0156250
        k(    9) = (   0.0003371   0.2884361  -0.0000292), wk =   0.0312500
        k(   10) = (   0.0003700   0.2884225   0.1325658), wk =   0.0312500
        k(   11) = (   0.0004028   0.2884090   0.2651608), wk =   0.0312500
        k(   12) = (   0.0004357   0.2883954   0.3977558), wk =   0.0312500
        k(   13) = (   0.0004686   0.2883818   0.5303508), wk =   0.0312500
        k(   14) = (   0.0005014   0.2883683   0.6629457), wk =   0.0312500
        k(   15) = (   0.0005343   0.2883547   0.7955407), wk =   0.0312500
        k(   16) = (   0.0005672   0.2883412   0.9281357), wk =   0.0312500
        k(   17) = (  -0.0006742  -0.5768721   0.0000585), wk =   0.0156250
        k(   18) = (  -0.0006413  -0.5768857   0.1326535), wk =   0.0156250
        k(   19) = (  -0.0006085  -0.5768992   0.2652485), wk =   0.0156250
        k(   20) = (  -0.0005756  -0.5769128   0.3978435), wk =   0.0156250
        k(   21) = (  -0.0005428  -0.5769264   0.5304385), wk =   0.0156250
        k(   22) = (  -0.0005099  -0.5769399   0.6630335), wk =   0.0156250
        k(   23) = (  -0.0004770  -0.5769535   0.7956284), wk =   0.0156250
        k(   24) = (  -0.0004442  -0.5769670   0.9282234), wk =   0.0156250
        k(   25) = (   0.2501691   0.1445095   0.0000470), wk =   0.0312500
        k(   26) = (   0.2502020   0.1444959   0.1326420), wk =   0.0312500
        k(   27) = (   0.2502348   0.1444824   0.2652370), wk =   0.0312500
        k(   28) = (   0.2502677   0.1444688   0.3978320), wk =   0.0312500
        k(   29) = (   0.2503006   0.1444553   0.5304270), wk =   0.0312500
        k(   30) = (   0.2503334   0.1444417   0.6630220), wk =   0.0312500
        k(   31) = (   0.2503663   0.1444282   0.7956169), wk =   0.0312500
        k(   32) = (   0.2503991   0.1444146   0.9282119), wk =   0.0312500
        k(   33) = (   0.2505062   0.4329456   0.0000177), wk =   0.0312500
        k(   34) = (   0.2505391   0.4329320   0.1326127), wk =   0.0312500
        k(   35) = (   0.2505719   0.4329185   0.2652077), wk =   0.0312500
        k(   36) = (   0.2506048   0.4329049   0.3978027), wk =   0.0312500
        k(   37) = (   0.2506377   0.4328913   0.5303977), wk =   0.0312500
        k(   38) = (   0.2506705   0.4328778   0.6629927), wk =   0.0312500
        k(   39) = (   0.2507034   0.4328642   0.7955877), wk =   0.0312500
        k(   40) = (   0.2507363   0.4328507   0.9281827), wk =   0.0312500
        k(   41) = (   0.2494949  -0.4323626   0.0001054), wk =   0.0312500
        k(   42) = (   0.2495277  -0.4323762   0.1327004), wk =   0.0312500
        k(   43) = (   0.2495606  -0.4323897   0.2652954), wk =   0.0312500
        k(   44) = (   0.2495935  -0.4324033   0.3978904), wk =   0.0312500
        k(   45) = (   0.2496263  -0.4324169   0.5304854), wk =   0.0312500
        k(   46) = (   0.2496592  -0.4324304   0.6630804), wk =   0.0312500
        k(   47) = (   0.2496921  -0.4324440   0.7956754), wk =   0.0312500
        k(   48) = (   0.2497249  -0.4324575   0.9282704), wk =   0.0312500
        k(   49) = (   0.2498320  -0.1439266   0.0000762), wk =   0.0312500
        k(   50) = (   0.2498648  -0.1439401   0.1326712), wk =   0.0312500
        k(   51) = (   0.2498977  -0.1439537   0.2652662), wk =   0.0312500
        k(   52) = (   0.2499306  -0.1439672   0.3978612), wk =   0.0312500
        k(   53) = (   0.2499634  -0.1439808   0.5304562), wk =   0.0312500
        k(   54) = (   0.2499963  -0.1439943   0.6630512), wk =   0.0312500
        k(   55) = (   0.2500292  -0.1440079   0.7956462), wk =   0.0312500
        k(   56) = (   0.2500620  -0.1440215   0.9282412), wk =   0.0312500
        k(   57) = (  -0.5003382  -0.2890190  -0.0000939), wk =   0.0156250
        k(   58) = (  -0.5003053  -0.2890326   0.1325011), wk =   0.0156250
        k(   59) = (  -0.5002724  -0.2890461   0.2650961), wk =   0.0156250
        k(   60) = (  -0.5002396  -0.2890597   0.3976911), wk =   0.0156250
        k(   61) = (  -0.5002067  -0.2890732   0.5302860), wk =   0.0156250
        k(   62) = (  -0.5001738  -0.2890868   0.6628810), wk =   0.0156250
        k(   63) = (  -0.5001410  -0.2891003   0.7954760), wk =   0.0156250
        k(   64) = (  -0.5001081  -0.2891139   0.9280710), wk =   0.0156250
        k(   65) = (  -0.5000011  -0.0005829  -0.0001232), wk =   0.0312500
        k(   66) = (  -0.4999682  -0.0005965   0.1324718), wk =   0.0312500
        k(   67) = (  -0.4999353  -0.0006101   0.2650668), wk =   0.0312500
        k(   68) = (  -0.4999025  -0.0006236   0.3976618), wk =   0.0312500
        k(   69) = (  -0.4998696  -0.0006372   0.5302568), wk =   0.0312500
        k(   70) = (  -0.4998367  -0.0006507   0.6628518), wk =   0.0312500
        k(   71) = (  -0.4998039  -0.0006643   0.7954468), wk =   0.0312500
        k(   72) = (  -0.4997710  -0.0006778   0.9280418), wk =   0.0312500
        k(   73) = (  -0.5010124  -0.8658911  -0.0000355), wk =   0.0156250
        k(   74) = (  -0.5009795  -0.8659047   0.1325595), wk =   0.0156250
        k(   75) = (  -0.5009467  -0.8659182   0.2651545), wk =   0.0156250
        k(   76) = (  -0.5009138  -0.8659318   0.3977495), wk =   0.0156250
        k(   77) = (  -0.5008809  -0.8659454   0.5303445), wk =   0.0156250
        k(   78) = (  -0.5008481  -0.8659589   0.6629395), wk =   0.0156250
        k(   79) = (  -0.5008152  -0.8659725   0.7955345), wk =   0.0156250
        k(   80) = (  -0.5007823  -0.8659860   0.9281295), wk =   0.0156250

                       cryst. coord.
        k(    1) = (   0.0000000   0.0000000   0.0000000), wk =   0.0156250
        k(    2) = (  -0.0000000   0.0000000   0.1428571), wk =   0.0156250
        k(    3) = (  -0.0000000   0.0000000   0.2857143), wk =   0.0156250
        k(    4) = (  -0.0000000   0.0000000   0.4285714), wk =   0.0156250
        k(    5) = (  -0.0000000   0.0000000   0.5714286), wk =   0.0156250
        k(    6) = (   0.0000000  -0.0000000   0.7142857), wk =   0.0156250
        k(    7) = (  -0.0000000   0.0000000   0.8571429), wk =   0.0156250
        k(    8) = (  -0.0000000   0.0000000   1.0000000), wk =   0.0156250
        k(    9) = (   0.0000000   0.2500000   0.0000000), wk =   0.0312500
        k(   10) = (  -0.0000000   0.2500000   0.1428571), wk =   0.0312500
        k(   11) = (   0.0000000   0.2500000   0.2857143), wk =   0.0312500
        k(   12) = (  -0.0000000   0.2500000   0.4285714), wk =   0.0312500
        k(   13) = (   0.0000000   0.2500000   0.5714286), wk =   0.0312500
        k(   14) = (   0.0000000   0.2500000   0.7142857), wk =   0.0312500
        k(   15) = (  -0.0000000   0.2500000   0.8571429), wk =   0.0312500
        k(   16) = (   0.0000000   0.2500000   1.0000000), wk =   0.0312500
        k(   17) = (  -0.0000000  -0.5000000  -0.0000000), wk =   0.0156250
        k(   18) = (  -0.0000000  -0.5000000   0.1428571), wk =   0.0156250
        k(   19) = (  -0.0000000  -0.5000000   0.2857143), wk =   0.0156250
        k(   20) = (  -0.0000000  -0.5000000   0.4285714), wk =   0.0156250
        k(   21) = (  -0.0000000  -0.5000000   0.5714286), wk =   0.0156250
        k(   22) = (  -0.0000000  -0.5000000   0.7142857), wk =   0.0156250
        k(   23) = (  -0.0000000  -0.5000000   0.8571429), wk =   0.0156250
        k(   24) = (  -0.0000000  -0.5000000   1.0000000), wk =   0.0156250
        k(   25) = (   0.2500000   0.0000000  -0.0000000), wk =   0.0312500
        k(   26) = (   0.2500000  -0.0000000   0.1428571), wk =   0.0312500
        k(   27) = (   0.2500000  -0.0000000   0.2857143), wk =   0.0312500
        k(   28) = (   0.2500000   0.0000000   0.4285714), wk =   0.0312500
        k(   29) = (   0.2500000  -0.0000000   0.5714286), wk =   0.0312500
        k(   30) = (   0.2500000  -0.0000000   0.7142857), wk =   0.0312500
        k(   31) = (   0.2500000  -0.0000000   0.8571429), wk =   0.0312500
        k(   32) = (   0.2500000   0.0000000   1.0000000), wk =   0.0312500
        k(   33) = (   0.2500000   0.2500000  -0.0000000), wk =   0.0312500
        k(   34) = (   0.2500000   0.2500000   0.1428571), wk =   0.0312500
        k(   35) = (   0.2500000   0.2500000   0.2857143), wk =   0.0312500
        k(   36) = (   0.2500000   0.2500000   0.4285714), wk =   0.0312500
        k(   37) = (   0.2500000   0.2500000   0.5714286), wk =   0.0312500
        k(   38) = (   0.2500000   0.2500000   0.7142857), wk =   0.0312500
        k(   39) = (   0.2500000   0.2500000   0.8571429), wk =   0.0312500
        k(   40) = (   0.2500000   0.2500000   1.0000000), wk =   0.0312500
        k(   41) = (   0.2500000  -0.5000000   0.0000000), wk =   0.0312500
        k(   42) = (   0.2500000  -0.5000000   0.1428571), wk =   0.0312500
        k(   43) = (   0.2500000  -0.5000000   0.2857143), wk =   0.0312500
        k(   44) = (   0.2500000  -0.5000000   0.4285714), wk =   0.0312500
        k(   45) = (   0.2500000  -0.5000000   0.5714286), wk =   0.0312500
        k(   46) = (   0.2500000  -0.5000000   0.7142857), wk =   0.0312500
        k(   47) = (   0.2500000  -0.5000000   0.8571429), wk =   0.0312500
        k(   48) = (   0.2500000  -0.5000000   1.0000000), wk =   0.0312500
        k(   49) = (   0.2500000  -0.2500000  -0.0000000), wk =   0.0312500
        k(   50) = (   0.2500000  -0.2500000   0.1428571), wk =   0.0312500
        k(   51) = (   0.2500000  -0.2500000   0.2857143), wk =   0.0312500
        k(   52) = (   0.2500000  -0.2500000   0.4285714), wk =   0.0312500
        k(   53) = (   0.2500000  -0.2500000   0.5714286), wk =   0.0312500
        k(   54) = (   0.2500000  -0.2500000   0.7142857), wk =   0.0312500
        k(   55) = (   0.2500000  -0.2500000   0.8571429), wk =   0.0312500
        k(   56) = (   0.2500000  -0.2500000   1.0000000), wk =   0.0312500
        k(   57) = (  -0.5000000  -0.0000000   0.0000000), wk =   0.0156250
        k(   58) = (  -0.5000000   0.0000000   0.1428571), wk =   0.0156250
        k(   59) = (  -0.5000000   0.0000000   0.2857143), wk =   0.0156250
        k(   60) = (  -0.5000000   0.0000000   0.4285714), wk =   0.0156250
        k(   61) = (  -0.5000000   0.0000000   0.5714286), wk =   0.0156250
        k(   62) = (  -0.5000000  -0.0000000   0.7142857), wk =   0.0156250
        k(   63) = (  -0.5000000   0.0000000   0.8571429), wk =   0.0156250
        k(   64) = (  -0.5000000   0.0000000   1.0000000), wk =   0.0156250
        k(   65) = (  -0.5000000   0.2500000  -0.0000000), wk =   0.0312500
        k(   66) = (  -0.5000000   0.2500000   0.1428571), wk =   0.0312500
        k(   67) = (  -0.5000000   0.2500000   0.2857143), wk =   0.0312500
        k(   68) = (  -0.5000000   0.2500000   0.4285714), wk =   0.0312500
        k(   69) = (  -0.5000000   0.2500000   0.5714286), wk =   0.0312500
        k(   70) = (  -0.5000000   0.2500000   0.7142857), wk =   0.0312500
        k(   71) = (  -0.5000000   0.2500000   0.8571429), wk =   0.0312500
        k(   72) = (  -0.5000000   0.2500000   1.0000000), wk =   0.0312500
        k(   73) = (  -0.5000000  -0.5000000   0.0000000), wk =   0.0156250
        k(   74) = (  -0.5000000  -0.5000000   0.1428571), wk =   0.0156250
        k(   75) = (  -0.5000000  -0.5000000   0.2857143), wk =   0.0156250
        k(   76) = (  -0.5000000  -0.5000000   0.4285714), wk =   0.0156250
        k(   77) = (  -0.5000000  -0.5000000   0.5714286), wk =   0.0156250
        k(   78) = (  -0.5000000  -0.5000000   0.7142857), wk =   0.0156250
        k(   79) = (  -0.5000000  -0.5000000   0.8571429), wk =   0.0156250
        k(   80) = (  -0.5000000  -0.5000000   1.0000000), wk =   0.0156250

     Dense  grid:  1097767 G-vectors     FFT dimensions: ( 135, 135, 144)

     Smooth grid:   365219 G-vectors     FFT dimensions: (  96,  96, 100)

     Dynamical RAM for                 wfc:       2.27 MB

     Dynamical RAM for     wfc (w. buffer):     183.92 MB

     Dynamical RAM for           str. fact:       0.39 MB

     Dynamical RAM for           local pot:       0.00 MB

     Dynamical RAM for          nlocal pot:       6.12 MB

     Dynamical RAM for                qrad:      20.99 MB

     Dynamical RAM for          rho,v,vnew:       1.23 MB

     Dynamical RAM for           G-vectors:       0.51 MB

     Dynamical RAM for          h,s,v(r/c):       2.00 MB

     Dynamical RAM for          <psi|beta>:       7.18 MB

     Dynamical RAM for                 psi:       9.08 MB

     Dynamical RAM for                hpsi:       9.08 MB

     Dynamical RAM for                spsi:       9.08 MB

     Dynamical RAM for      wfcinit/wfcrot:      12.26 MB

     Dynamical RAM for           addusdens:      31.54 MB

     Estimated static dynamical RAM per process >     215.07 MB

     Estimated max dynamical RAM per process >     251.50 MB

     Estimated total dynamical RAM >      31.44 GB

     Check: negative core charge=   -0.000002

     The potential is recalculated from file :
     ./temp/ZnO.save/charge-density

     Starting wfcs are  532 randomized atomic wfcs

     Band Structure Calculation
     Davidson diagonalization with overlap

     Computing kpt #:     1
     total cpu time spent up to now is       24.0 secs

     Computing kpt #:     2
     total cpu time spent up to now is       40.1 secs

     Computing kpt #:     3
     total cpu time spent up to now is       56.0 secs

     Computing kpt #:     4
     total cpu time spent up to now is       71.6 secs

     Computing kpt #:     5
     total cpu time spent up to now is       87.8 secs

     Computing kpt #:     6
     total cpu time spent up to now is      104.1 secs

     Computing kpt #:     7
     total cpu time spent up to now is      119.9 secs

     Computing kpt #:     8
     total cpu time spent up to now is      135.5 secs

     Computing kpt #:     9
     total cpu time spent up to now is      151.3 secs

     Computing kpt #:    10
     total cpu time spent up to now is      167.0 secs

     Computing kpt #:    11
     total cpu time spent up to now is      182.6 secs

     Computing kpt #:    12
     total cpu time spent up to now is      198.3 secs

     Computing kpt #:    13
     total cpu time spent up to now is      214.0 secs

     Computing kpt #:    14
     total cpu time spent up to now is      229.8 secs

     Computing kpt #:    15
     total cpu time spent up to now is      245.5 secs

     Computing kpt #:    16
     total cpu time spent up to now is      261.4 secs

     Computing kpt #:    17
     total cpu time spent up to now is      277.1 secs

     Computing kpt #:    18
     total cpu time spent up to now is      292.8 secs

     Computing kpt #:    19
     total cpu time spent up to now is      308.4 secs

     Computing kpt #:    20
     total cpu time spent up to now is      324.0 secs

     Computing kpt #:    21
     total cpu time spent up to now is      339.7 secs

     Computing kpt #:    22
     total cpu time spent up to now is      357.8 secs

     Computing kpt #:    23
     total cpu time spent up to now is      376.4 secs

     Computing kpt #:    24
     total cpu time spent up to now is      394.9 secs

     Computing kpt #:    25
     total cpu time spent up to now is      413.6 secs

     Computing kpt #:    26
     total cpu time spent up to now is      432.8 secs

     Computing kpt #:    27
     total cpu time spent up to now is      451.5 secs

     Computing kpt #:    28
     total cpu time spent up to now is      470.2 secs

     Computing kpt #:    29
     total cpu time spent up to now is      488.8 secs

     Computing kpt #:    30
     total cpu time spent up to now is      507.5 secs

     Computing kpt #:    31
     total cpu time spent up to now is      527.1 secs

     Computing kpt #:    32
     total cpu time spent up to now is      546.7 secs

     Computing kpt #:    33
     total cpu time spent up to now is      566.3 secs

     Computing kpt #:    34
     total cpu time spent up to now is      586.3 secs

     Computing kpt #:    35
     total cpu time spent up to now is      606.3 secs

     Computing kpt #:    36
     total cpu time spent up to now is      626.0 secs

     Computing kpt #:    37
     total cpu time spent up to now is      645.3 secs

     Computing kpt #:    38
     total cpu time spent up to now is      664.7 secs

     Computing kpt #:    39
     total cpu time spent up to now is      686.2 secs

     Computing kpt #:    40
     total cpu time spent up to now is      706.2 secs

     Computing kpt #:    41
     total cpu time spent up to now is      724.9 secs

     Computing kpt #:    42
     total cpu time spent up to now is      743.4 secs

     Computing kpt #:    43
     total cpu time spent up to now is      762.2 secs

     Computing kpt #:    44
     total cpu time spent up to now is      780.7 secs

     Computing kpt #:    45
     total cpu time spent up to now is      799.2 secs

     Computing kpt #:    46
     total cpu time spent up to now is      817.9 secs

     Computing kpt #:    47
     total cpu time spent up to now is      836.6 secs

     Computing kpt #:    48
     total cpu time spent up to now is      855.1 secs

     Computing kpt #:    49
     total cpu time spent up to now is      874.3 secs

     Computing kpt #:    50
     total cpu time spent up to now is      893.7 secs

     Computing kpt #:    51
     total cpu time spent up to now is      912.9 secs

     Computing kpt #:    52
     total cpu time spent up to now is      933.0 secs

     Computing kpt #:    53
     total cpu time spent up to now is      952.7 secs

     Computing kpt #:    54
     total cpu time spent up to now is      972.2 secs

     Computing kpt #:    55
     total cpu time spent up to now is      989.8 secs

     Computing kpt #:    56
     total cpu time spent up to now is     1007.5 secs

     Computing kpt #:    57
     total cpu time spent up to now is     1024.7 secs

     Computing kpt #:    58
     total cpu time spent up to now is     1042.0 secs

     Computing kpt #:    59
     total cpu time spent up to now is     1059.5 secs

     Computing kpt #:    60
     total cpu time spent up to now is     1077.1 secs

     Computing kpt #:    61
     total cpu time spent up to now is     1094.5 secs

     Computing kpt #:    62
     total cpu time spent up to now is     1111.8 secs

     Computing kpt #:    63
     total cpu time spent up to now is     1129.2 secs

     Computing kpt #:    64
     total cpu time spent up to now is     1146.5 secs

     Computing kpt #:    65
     total cpu time spent up to now is     1163.8 secs

     Computing kpt #:    66
     total cpu time spent up to now is     1181.7 secs

     Computing kpt #:    67
     total cpu time spent up to now is     1199.2 secs

     Computing kpt #:    68
     total cpu time spent up to now is     1216.9 secs

     Computing kpt #:    69
     total cpu time spent up to now is     1234.3 secs

     Computing kpt #:    70
     total cpu time spent up to now is     1251.8 secs

     Computing kpt #:    71
     total cpu time spent up to now is     1269.3 secs

     Computing kpt #:    72
     total cpu time spent up to now is     1286.7 secs

     Computing kpt #:    73
     total cpu time spent up to now is     1304.2 secs

     Computing kpt #:    74
     total cpu time spent up to now is     1321.8 secs

     Computing kpt #:    75
     total cpu time spent up to now is     1339.3 secs

     Computing kpt #:    76
     total cpu time spent up to now is     1356.9 secs

     Computing kpt #:    77
     total cpu time spent up to now is     1374.4 secs

     Computing kpt #:    78
     total cpu time spent up to now is     1392.1 secs

     Computing kpt #:    79
     total cpu time spent up to now is     1409.4 secs

     Computing kpt #:    80
     total cpu time spent up to now is     1426.8 secs

     ethr =  1.20E-12,  avg # of iterations = 12.4

     total cpu time spent up to now is     1426.8 secs

     End of band structure calculation

          k = 0.0000 0.0000 0.0000 ( 45717 PWs)   bands (ev):

  -115.3566-115.3521-115.3520-115.3518-115.3516-115.3515-115.3514-115.3514
  -115.3511-115.3508-115.3505-115.3502-115.3498-115.3495-115.3474-115.3466
  -115.3462-115.3456-115.3439-115.3430-115.3429-115.3427-115.3422-115.3408
  -115.3376-115.3334 -69.7159 -69.7127 -69.7110 -69.7110 -69.7108 -69.7106
   -69.7105 -69.7104 -69.7099 -69.7099 -69.7098 -69.7097 -69.7095 -69.7089
   -69.7088 -69.7087 -69.7086 -69.7085 -69.7082 -69.7082 -69.7079 -69.7078
   -69.7077 -69.7074 -69.7072 -69.7070 -69.7067 -69.7065 -69.7058 -69.7055
   -69.7054 -69.7054 -69.7051 -69.7049 -69.7049 -69.7048 -69.7045 -69.7044
   -69.7042 -69.7040 -69.7038 -69.7036 -69.7034 -69.7033 -69.7033 -69.7031
   -69.7031 -69.7021 -69.7018 -69.7013 -69.7013 -69.7011 -69.7011 -69.7008
   -69.7006 -69.7003 -69.7003 -69.7001 -69.6997 -69.6997 -69.6996 -69.6988
   -69.6987 -69.6983 -69.6983 -69.6981 -69.6968 -69.6965 -69.6964 -69.6958
   -69.6953 -69.6950 -69.6938 -69.6925 -69.6921 -69.6916 -69.6894 -69.6871
   -64.8601 -64.8416 -64.8403 -64.8373 -64.8286 -64.8266 -64.8262 -64.8228
   -64.8191 -64.8128 -31.8470 -31.8456 -31.8437 -31.8307 -31.8295 -31.8283
   -31.8264 -31.8253 -31.8245 -31.8243 -31.8229 -31.8198 -31.8195 -31.8192
   -31.8140 -31.8134 -31.8127 -31.8122 -31.8112 -31.8110 -31.8105 -31.8096
   -31.8086 -31.8077 -31.8055 -31.8021 -31.7993 -31.7979 -31.7955 -31.7923
   -10.0022  -9.6809  -9.6683  -9.5503  -9.5415  -9.5284  -9.5051  -9.4823
    -9.4760  -9.3980  -9.3622  -9.3475  -9.3300  -9.3064  -9.3011  -9.2956
    -9.2746  -9.2665  -9.2402  -9.2354  -9.2153  -9.1828  -9.1517  -9.1431
    -9.1424  -9.1329  -9.1245  -9.0984  -9.0847  -9.0476  -9.0237  -9.0026
    -8.9776  -8.9691  -8.9594  -8.8595   1.8177   1.8208   1.8366   1.8403
     1.8649   1.8764   1.8855   1.8981   1.9063   1.9268   1.9344   1.9556
     1.9727   1.9866   2.0129   2.0204   2.0500   2.0638   2.0776   2.1047
     2.1535   2.1706   2.1929   2.2022   2.2167   2.2270   2.2440   2.2551
     2.2636   2.2835   2.2940   2.3044   2.3110   2.3167   2.3219   2.3398
     2.3513   2.3600   2.3644   2.3707   2.3833   2.3923   2.3979   2.4100
     2.4237   2.4260   2.4406   2.4429   2.4610   2.4792   2.4896   2.4953
     2.5074   2.5092   2.5100   2.5299   2.5356   2.5404   2.5457   2.5601
     2.5764   2.6052   2.6573   2.6633   2.6709   2.6803   2.6981   2.7080
     2.7134   2.7286   2.7449   2.7678   2.7890   2.8244   2.8353   2.8422
     2.8619   2.8722   2.8945   2.9072   2.9263   2.9577   2.9612   2.9986
     3.0108   3.0217   3.0337   3.0458   3.0604   3.0742   3.0896   3.1003
     3.1157   3.1217   3.1448   3.1691   3.1812   3.1982   3.2148   3.2306
     3.2363   3.2416   3.2597   3.2673   3.2825   3.2862   3.2974   3.3029
     3.3139   3.3156   3.3205   3.3277   3.3310   3.3406   3.3424   3.3613
     3.3649   3.3717   3.3806   3.3870   3.3934   3.4053   3.4121   3.4233
     3.4277   3.4384   3.4779   3.5003   3.5240   3.5389   3.5460   3.6975
     3.7170   3.7491   3.7905   3.8300   3.8426   3.8769   3.9222   3.9471
     3.9581   3.9624   4.0068   4.0451   4.0878   4.1075   4.1151   4.1746
     4.2191   4.2307   4.2831   4.3255   4.3624   4.3758   4.4087   4.4773
     4.5119   4.5215   4.5826   4.6398   4.6822   4.6963   4.7231   4.7551
     4.8471   4.9276   4.9589   4.9694   5.0159   5.0962   5.2228   5.2582
     5.2853   5.2973   5.3971   5.4830   5.5438   5.6211   5.6589   5.6763
     5.6952   5.7314   5.8013   5.8123   5.8369   5.8793   5.8902   5.9116
     5.9244   5.9371   5.9917   6.0350   6.0929   6.1047   6.1256   6.1584
     6.1941   6.2336   6.2667   6.2977   6.3286   6.3407   6.3496   6.3695
     6.3831   6.3900   6.3968   6.4047   6.4250   6.4491   6.4653   6.4754
     6.4898   6.5137   6.5319   6.5500   6.5667   6.6527   6.7388   6.7691
     6.7864   6.8078   6.8151   6.8195   6.8488   6.8623   6.9052   6.9676
     6.9842   7.0145   7.0754   7.1420   7.1970   7.2121   7.2357   7.4365
     7.4758   7.4913

     occupation numbers 
     1.0000   1.0000   1.0000   1.0000   1.0000   1.0000   1.0000   1.0000
     1.0000   1.0000   1.0000   1.0000   1.0000   1.0000   1.0000   1.0000
     1.0000   1.0000   1.0000   1.0000   1.0000   1.0000   1.0000   1.0000
     1.0000   1.0000   1.0000   1.0000   1.0000   1.0000   1.0000   1.0000
     1.0000   1.0000   1.0000   1.0000   1.0000   1.0000   1.0000   1.0000
     1.0000   1.0000   1.0000   1.0000   1.0000   1.0000   1.0000   1.0000
     1.0000   1.0000   1.0000   1.0000   1.0000   1.0000   1.0000   1.0000
     1.0000   1.0000   1.0000   1.0000   1.0000   1.0000   1.0000   1.0000
     1.0000   1.0000   1.0000   1.0000   1.0000   1.0000   1.0000   1.0000
     1.0000   1.0000   1.0000   1.0000   1.0000   1.0000   1.0000   1.0000
     1.0000   1.0000   1.0000   1.0000   1.0000   1.0000   1.0000   1.0000
     1.0000   1.0000   1.0000   1.0000   1.0000   1.0000   1.0000   1.0000
     1.0000   1.0000   1.0000   1.0000   1.0000   1.0000   1.0000   1.0000
     1.0000   1.0000   1.0000   1.0000   1.0000   1.0000   1.0000   1.0000
     1.0000   1.0000   1.0000   1.0000   1.0000   1.0000   1.0000   1.0000
     1.0000   1.0000   1.0000   1.0000   1.0000   1.0000   1.0000   1.0000
     1.0000   1.0000   1.0000   1.0000   1.0000   1.0000   1.0000   1.0000
     1.0000   1.0000   1.0000   1.0000   1.0000   1.0000   1.0000   1.0000
     1.0000   1.0000   1.0000   1.0000   1.0000   1.0000   1.0000   1.0000
     1.0000   1.0000   1.0000   1.0000   1.0000   1.0000   1.0000   1.0000
     1.0000   1.0000   1.0000   1.0000   1.0000   1.0000   1.0000   1.0000
     1.0000   1.0000   1.0000   1.0000   1.0000   1.0000   1.0000   1.0000
     1.0000   1.0000   1.0000   1.0000   1.0000   1.0000   1.0000   1.0000
     1.0000   1.0000   1.0000   1.0000   1.0000   1.0000   1.0000   1.0000
     1.0000   1.0000   1.0000   1.0000   1.0000   1.0000   1.0000   1.0000
     1.0000   1.0000   1.0000   1.0000   1.0000   1.0000   1.0000   1.0000
     1.0000   1.0000   1.0000   1.0000   1.0000   1.0000   1.0000   1.0000
     1.0000   1.0000   1.0000   1.0000   1.0000   1.0000   1.0000   1.0000
     1.0000   1.0000   1.0000   1.0000   1.0000   1.0000   1.0000   1.0000
     1.0000   1.0000   1.0000   1.0000   1.0000   1.0000   1.0000   1.0000
     1.0000   1.0000   1.0000   1.0000   1.0000   1.0000   1.0000   1.0000
     1.0000   1.0000   1.0000   1.0000   1.0000   1.0000   1.0000   1.0000
     1.0000   1.0000   1.0000   1.0000   1.0000   1.0000   1.0000   1.0000
     1.0000   1.0000   1.0000   1.0000   1.0000   1.0000   1.0000   1.0000
     1.0000   1.0000   1.0000   1.0000   1.0000   1.0000   1.0000   1.0000
     1.0000   1.0000   1.0000   1.0000   1.0000   1.0000   1.0000   1.0000
     1.0000   1.0000   1.0000   1.0000   1.0000   1.0000   1.0000   1.0000
     1.0000   1.0000   1.0000   1.0000   1.0000   1.0000   1.0000   1.0000
     1.0000   1.0000   1.0000   1.0000   1.0000   1.0000   1.0000   1.0000
     1.0000   1.0000   1.0000   1.0000   1.0000   1.0000   1.0000   1.0000
     1.0000   1.0000   1.0000   1.0000   1.0000   1.0000   1.0000   1.0000
     1.0000   1.0000   1.0000   1.0000   1.0000   1.0000   1.0000   1.0000
     1.0000   1.0000   1.0000   1.0000   1.0000   1.0000   1.0000   1.0000
     1.0000   1.0000   1.0000   1.0000   1.0000   1.0000   1.0000   1.0000
     1.0000   1.0000   1.0000   1.0000   1.0000   1.0000   1.0000   1.0000
     1.0000   1.0000   1.0000   1.0000   1.0000   1.0000   1.0000   1.0000
     1.0000   1.0000   1.0000   1.0000   1.0000   1.0000   1.0000   1.0000
     1.0000   1.0000   1.0000   1.0000   1.0000   1.0000   1.0000   1.0000
     1.0000   1.0000   1.0000   1.0000   1.0000   1.0000   1.0000   1.0000
     1.0000   1.0000   1.0000   1.0000   1.0000   1.0000   1.0000   1.0000
     1.0000   1.0000   1.0000   1.0000   1.0000   1.0000   1.0000   1.0000
     1.0000   1.0000   1.0000   1.0000   1.0000   1.0000   1.0000   1.0000
     1.0000   1.0000

          k = 0.0000-0.0000 0.1326 ( 45671 PWs)   bands (ev):

  -115.3566-115.3521-115.3520-115.3518-115.3516-115.3515-115.3514-115.3514
  -115.3511-115.3508-115.3505-115.3502-115.3498-115.3495-115.3474-115.3466
  -115.3462-115.3456-115.3439-115.3430-115.3429-115.3427-115.3422-115.3408
  -115.3376-115.3334 -69.7159 -69.7127 -69.7110 -69.7110 -69.7108 -69.7106
   -69.7105 -69.7104 -69.7099 -69.7099 -69.7098 -69.7097 -69.7095 -69.7089
   -69.7088 -69.7087 -69.7086 -69.7085 -69.7082 -69.7082 -69.7079 -69.7078
   -69.7077 -69.7074 -69.7072 -69.7070 -69.7067 -69.7065 -69.7058 -69.7055
   -69.7054 -69.7054 -69.7051 -69.7049 -69.7049 -69.7048 -69.7045 -69.7044
   -69.7042 -69.7040 -69.7038 -69.7036 -69.7034 -69.7033 -69.7033 -69.7031
   -69.7031 -69.7021 -69.7018 -69.7013 -69.7013 -69.7011 -69.7011 -69.7008
   -69.7006 -69.7003 -69.7003 -69.7001 -69.6997 -69.6997 -69.6996 -69.6988
   -69.6987 -69.6983 -69.6983 -69.6981 -69.6968 -69.6965 -69.6964 -69.6958
   -69.6953 -69.6950 -69.6938 -69.6925 -69.6921 -69.6916 -69.6894 -69.6871
   -64.8601 -64.8416 -64.8403 -64.8373 -64.8286 -64.8266 -64.8262 -64.8228
   -64.8191 -64.8128 -31.8470 -31.8456 -31.8437 -31.8307 -31.8295 -31.8283
   -31.8264 -31.8253 -31.8245 -31.8243 -31.8229 -31.8198 -31.8195 -31.8192
   -31.8140 -31.8134 -31.8127 -31.8122 -31.8112 -31.8110 -31.8105 -31.8096
   -31.8086 -31.8077 -31.8055 -31.8021 -31.7993 -31.7979 -31.7955 -31.7923
    -9.9940  -9.7428  -9.6155  -9.5459  -9.5383  -9.5207  -9.4985  -9.4808
    -9.4701  -9.4121  -9.3842  -9.3635  -9.3399  -9.3191  -9.3037  -9.2807
    -9.2683  -9.2603  -9.2378  -9.2212  -9.2031  -9.1803  -9.1523  -9.1429
    -9.1395  -9.1322  -9.1249  -9.1009  -9.0854  -9.0496  -9.0242  -9.0036
    -8.9800  -8.9699  -8.9613  -8.8603   1.8177   1.8269   1.8365   1.8472
     1.8653   1.8825   1.8924   1.9089   1.9125   1.9376   1.9440   1.9586
     1.9708   1.9870   2.0156   2.0216   2.0517   2.0703   2.0863   2.1089
     2.1540   2.1720   2.1907   2.2035   2.2182   2.2291   2.2402   2.2499
     2.2597   2.2776   2.2923   2.2977   2.3079   2.3138   2.3201   2.3347
     2.3431   2.3542   2.3629   2.3696   2.3828   2.3951   2.4004   2.4075
     2.4243   2.4348   2.4405   2.4489   2.4602   2.4799   2.4877   2.4949
     2.5031   2.5090   2.5168   2.5268   2.5334   2.5413   2.5484   2.5565
     2.5706   2.6058   2.6514   2.6579   2.6648   2.6733   2.6923   2.7044
     2.7084   2.7222   2.7371   2.7635   2.7747   2.8022   2.8260   2.8368
     2.8500   2.8672   2.8877   2.8975   2.9152   2.9350   2.9629   2.9794
     3.0027   3.0094   3.0282   3.0468   3.0569   3.0737   3.0849   3.0974
     3.1084   3.1270   3.1461   3.1604   3.1796   3.1914   3.2122   3.2238
     3.2337   3.2448   3.2600   3.2668   3.2783   3.2899   3.2963   3.3115
     3.3142   3.3181   3.3252   3.3321   3.3343   3.3438   3.3515   3.3579
     3.3705   3.3790   3.3828   3.3892   3.3991   3.4030   3.4097   3.4220
     3.4361   3.4470   3.4763   3.5004   3.5247   3.5316   3.5484   3.7230
     3.7556   3.7794   3.8100   3.8441   3.8554   3.8914   3.9326   3.9543
     3.9634   3.9796   4.0113   4.0656   4.0874   4.1126   4.1234   4.1791
     4.2224   4.2372   4.2907   4.3277   4.3584   4.3770   4.4290   4.4616
     4.5291   4.5389   4.5868   4.6360   4.6766   4.6968   4.7161   4.7648
     4.8042   4.8482   4.8843   4.9812   5.0933   5.1480   5.2458   5.2671
     5.3047   5.3193   5.3996   5.5046   5.5411   5.6233   5.6668   5.6933
     5.7115   5.7467   5.7930   5.8171   5.8451   5.8631   5.8717   5.8819
     5.8948   5.9212   5.9393   5.9724   5.9938   6.0137   6.0763   6.0926
     6.1859   6.2230   6.2480   6.2712   6.2929   6.3048   6.3264   6.3574
     6.3767   6.4038   6.4127   6.4250   6.4545   6.4876   6.4964   6.5365
     6.5542   6.5719   6.5830   6.5896   6.6140   6.6714   6.7469   6.7760
     6.8030   6.8180   6.8252   6.8326   6.8454   6.8724   6.9036   6.9629
     6.9755   7.0068   7.0662   7.1113   7.1530   7.2458   7.2777   7.3381
     7.4696   7.4850

     occupation numbers 
     1.0000   1.0000   1.0000   1.0000   1.0000   1.0000   1.0000   1.0000
     1.0000   1.0000   1.0000   1.0000   1.0000   1.0000   1.0000   1.0000
     1.0000   1.0000   1.0000   1.0000   1.0000   1.0000   1.0000   1.0000
     1.0000   1.0000   1.0000   1.0000   1.0000   1.0000   1.0000   1.0000
     1.0000   1.0000   1.0000   1.0000   1.0000   1.0000   1.0000   1.0000
     1.0000   1.0000   1.0000   1.0000   1.0000   1.0000   1.0000   1.0000
     1.0000   1.0000   1.0000   1.0000   1.0000   1.0000   1.0000   1.0000
     1.0000   1.0000   1.0000   1.0000   1.0000   1.0000   1.0000   1.0000
     1.0000   1.0000   1.0000   1.0000   1.0000   1.0000   1.0000   1.0000
     1.0000   1.0000   1.0000   1.0000   1.0000   1.0000   1.0000   1.0000
     1.0000   1.0000   1.0000   1.0000   1.0000   1.0000   1.0000   1.0000
     1.0000   1.0000   1.0000   1.0000   1.0000   1.0000   1.0000   1.0000
     1.0000   1.0000   1.0000   1.0000   1.0000   1.0000   1.0000   1.0000
     1.0000   1.0000   1.0000   1.0000   1.0000   1.0000   1.0000   1.0000
     1.0000   1.0000   1.0000   1.0000   1.0000   1.0000   1.0000   1.0000
     1.0000   1.0000   1.0000   1.0000   1.0000   1.0000   1.0000   1.0000
     1.0000   1.0000   1.0000   1.0000   1.0000   1.0000   1.0000   1.0000
     1.0000   1.0000   1.0000   1.0000   1.0000   1.0000   1.0000   1.0000
     1.0000   1.0000   1.0000   1.0000   1.0000   1.0000   1.0000   1.0000
     1.0000   1.0000   1.0000   1.0000   1.0000   1.0000   1.0000   1.0000
     1.0000   1.0000   1.0000   1.0000   1.0000   1.0000   1.0000   1.0000
     1.0000   1.0000   1.0000   1.0000   1.0000   1.0000   1.0000   1.0000
     1.0000   1.0000   1.0000   1.0000   1.0000   1.0000   1.0000   1.0000
     1.0000   1.0000   1.0000   1.0000   1.0000   1.0000   1.0000   1.0000
     1.0000   1.0000   1.0000   1.0000   1.0000   1.0000   1.0000   1.0000
     1.0000   1.0000   1.0000   1.0000   1.0000   1.0000   1.0000   1.0000
     1.0000   1.0000   1.0000   1.0000   1.0000   1.0000   1.0000   1.0000
     1.0000   1.0000   1.0000   1.0000   1.0000   1.0000   1.0000   1.0000
     1.0000   1.0000   1.0000   1.0000   1.0000   1.0000   1.0000   1.0000
     1.0000   1.0000   1.0000   1.0000   1.0000   1.0000   1.0000   1.0000
     1.0000   1.0000   1.0000   1.0000   1.0000   1.0000   1.0000   1.0000
     1.0000   1.0000   1.0000   1.0000   1.0000   1.0000   1.0000   1.0000
     1.0000   1.0000   1.0000   1.0000   1.0000   1.0000   1.0000   1.0000
     1.0000   1.0000   1.0000   1.0000   1.0000   1.0000   1.0000   1.0000
     1.0000   1.0000   1.0000   1.0000   1.0000   1.0000   1.0000   1.0000
     1.0000   1.0000   1.0000   1.0000   1.0000   1.0000   1.0000   1.0000
     1.0000   1.0000   1.0000   1.0000   1.0000   1.0000   1.0000   1.0000
     1.0000   1.0000   1.0000   1.0000   1.0000   1.0000   1.0000   1.0000
     1.0000   1.0000   1.0000   1.0000   1.0000   1.0000   1.0000   1.0000
     1.0000   1.0000   1.0000   1.0000   1.0000   1.0000   1.0000   1.0000
     1.0000   1.0000   1.0000   1.0000   1.0000   1.0000   1.0000   1.0000
     1.0000   1.0000   1.0000   1.0000   1.0000   1.0000   1.0000   1.0000
     1.0000   1.0000   1.0000   1.0000   1.0000   1.0000   1.0000   1.0000
     1.0000   1.0000   1.0000   1.0000   1.0000   1.0000   1.0000   1.0000
     1.0000   1.0000   1.0000   1.0000   1.0000   1.0000   1.0000   1.0000
     1.0000   1.0000   1.0000   1.0000   1.0000   1.0000   1.0000   1.0000
     1.0000   1.0000   1.0000   1.0000   1.0000   1.0000   1.0000   1.0000
     1.0000   1.0000   1.0000   1.0000   1.0000   1.0000   1.0000   1.0000
     1.0000   1.0000   1.0000   1.0000   1.0000   1.0000   1.0000   1.0000
     1.0000   1.0000   1.0000   1.0000   1.0000   1.0000   1.0000   1.0000
     1.0000   1.0000   1.0000   1.0000   1.0000   1.0000   1.0000   1.0000
     1.0000   1.0000   1.0000   1.0000   1.0000   1.0000   1.0000   1.0000
     1.0000   1.0000

          k = 0.0001-0.0000 0.2652 ( 45613 PWs)   bands (ev):

  -115.3566-115.3521-115.3520-115.3518-115.3516-115.3515-115.3514-115.3514
  -115.3511-115.3508-115.3505-115.3502-115.3498-115.3495-115.3474-115.3466
  -115.3462-115.3456-115.3439-115.3430-115.3429-115.3427-115.3422-115.3408
  -115.3376-115.3334 -69.7159 -69.7127 -69.7110 -69.7110 -69.7108 -69.7106
   -69.7105 -69.7104 -69.7099 -69.7099 -69.7098 -69.7097 -69.7095 -69.7088
   -69.7088 -69.7087 -69.7086 -69.7085 -69.7082 -69.7082 -69.7079 -69.7078
   -69.7077 -69.7074 -69.7072 -69.7070 -69.7067 -69.7065 -69.7058 -69.7055
   -69.7054 -69.7054 -69.7051 -69.7049 -69.7049 -69.7048 -69.7045 -69.7044
   -69.7042 -69.7041 -69.7038 -69.7036 -69.7034 -69.7033 -69.7033 -69.7031
   -69.7031 -69.7021 -69.7018 -69.7013 -69.7013 -69.7011 -69.7011 -69.7008
   -69.7006 -69.7003 -69.7003 -69.7001 -69.6997 -69.6997 -69.6996 -69.6988
   -69.6987 -69.6983 -69.6983 -69.6981 -69.6968 -69.6965 -69.6964 -69.6958
   -69.6953 -69.6950 -69.6938 -69.6925 -69.6921 -69.6916 -69.6894 -69.6871
   -64.8601 -64.8416 -64.8403 -64.8373 -64.8286 -64.8266 -64.8262 -64.8228
   -64.8191 -64.8128 -31.8470 -31.8456 -31.8437 -31.8307 -31.8295 -31.8283
   -31.8264 -31.8253 -31.8245 -31.8243 -31.8229 -31.8198 -31.8195 -31.8192
   -31.8140 -31.8134 -31.8127 -31.8122 -31.8112 -31.8110 -31.8105 -31.8096
   -31.8086 -31.8077 -31.8055 -31.8021 -31.7993 -31.7979 -31.7955 -31.7923
    -9.9699  -9.8107  -9.5729  -9.5349  -9.5270  -9.5056  -9.4826  -9.4772
    -9.4582  -9.4346  -9.4184  -9.3913  -9.3693  -9.3427  -9.3051  -9.2868
    -9.2480  -9.2414  -9.2245  -9.1988  -9.1816  -9.1758  -9.1561  -9.1413
    -9.1347  -9.1273  -9.1247  -9.1097  -9.0853  -9.0549  -9.0252  -9.0056
    -8.9863  -8.9723  -8.9649  -8.8622   1.8204   1.8380   1.8421   1.8626
     1.8691   1.8877   1.9080   1.9252   1.9310   1.9473   1.9587   1.9711
     1.9884   2.0006   2.0217   2.0301   2.0597   2.0865   2.1065   2.1231
     2.1528   2.1733   2.1798   2.1939   2.2165   2.2230   2.2337   2.2423
     2.2507   2.2594   2.2770   2.2861   2.2971   2.3042   2.3210   2.3272
     2.3392   2.3485   2.3517   2.3715   2.3823   2.4052   2.4074   2.4124
     2.4221   2.4403   2.4490   2.4581   2.4616   2.4784   2.4830   2.4908
     2.5027   2.5109   2.5199   2.5235   2.5321   2.5424   2.5457   2.5551
     2.5669   2.6040   2.6307   2.6354   2.6449   2.6549   2.6634   2.6860
     2.7006   2.7045   2.7156   2.7440   2.7505   2.7774   2.8010   2.8133
     2.8415   2.8501   2.8665   2.8796   2.9011   2.9092   2.9443   2.9633
     2.9830   2.9910   3.0260   3.0401   3.0529   3.0698   3.0756   3.0889
     3.0968   3.1165   3.1419   3.1602   3.1738   3.1882   3.2156   3.2307
     3.2378   3.2410   3.2600   3.2702   3.2767   3.2858   3.3022   3.3075
     3.3160   3.3230   3.3277   3.3365   3.3418   3.3487   3.3548   3.3670
     3.3719   3.3811   3.3928   3.3951   3.4057   3.4095   3.4138   3.4336
     3.4474   3.4615   3.4700   3.4898   3.5122   3.5202   3.6219   3.7608
     3.7971   3.8202   3.8468   3.8744   3.8971   3.9169   3.9561   3.9702
     3.9865   4.0153   4.0379   4.0750   4.1043   4.1338   4.1556   4.1864
     4.2230   4.2579   4.2949   4.3195   4.3572   4.3753   4.4244   4.4622
     4.5099   4.5508   4.5907   4.6225   4.6687   4.7233   4.7454   4.7730
     4.7981   4.8302   4.8839   4.9247   5.1802   5.1956   5.2551   5.2967
     5.3546   5.3820   5.4028   5.4844   5.5344   5.5983   5.6226   5.6354
     5.6817   5.7056   5.7256   5.7716   5.7890   5.8359   5.8458   5.8781
     5.8897   5.9004   5.9275   5.9358   5.9657   5.9855   6.0235   6.0799
     6.1211   6.1531   6.1779   6.2069   6.2243   6.2314   6.2726   6.3034
     6.3076   6.4200   6.4440   6.5017   6.5184   6.5521   6.5809   6.6136
     6.6317   6.6467   6.6627   6.6755   6.6914   6.7157   6.7686   6.7946
     6.8163   6.8379   6.8450   6.8594   6.8651   6.8938   6.9093   6.9424
     6.9674   6.9888   7.0417   7.0619   7.0960   7.1253   7.2974   7.3305
     7.4522   7.4670

     occupation numbers 
     1.0000   1.0000   1.0000   1.0000   1.0000   1.0000   1.0000   1.0000
     1.0000   1.0000   1.0000   1.0000   1.0000   1.0000   1.0000   1.0000
     1.0000   1.0000   1.0000   1.0000   1.0000   1.0000   1.0000   1.0000
     1.0000   1.0000   1.0000   1.0000   1.0000   1.0000   1.0000   1.0000
     1.0000   1.0000   1.0000   1.0000   1.0000   1.0000   1.0000   1.0000
     1.0000   1.0000   1.0000   1.0000   1.0000   1.0000   1.0000   1.0000
     1.0000   1.0000   1.0000   1.0000   1.0000   1.0000   1.0000   1.0000
     1.0000   1.0000   1.0000   1.0000   1.0000   1.0000   1.0000   1.0000
     1.0000   1.0000   1.0000   1.0000   1.0000   1.0000   1.0000   1.0000
     1.0000   1.0000   1.0000   1.0000   1.0000   1.0000   1.0000   1.0000
     1.0000   1.0000   1.0000   1.0000   1.0000   1.0000   1.0000   1.0000
     1.0000   1.0000   1.0000   1.0000   1.0000   1.0000   1.0000   1.0000
     1.0000   1.0000   1.0000   1.0000   1.0000   1.0000   1.0000   1.0000
     1.0000   1.0000   1.0000   1.0000   1.0000   1.0000   1.0000   1.0000
     1.0000   1.0000   1.0000   1.0000   1.0000   1.0000   1.0000   1.0000
     1.0000   1.0000   1.0000   1.0000   1.0000   1.0000   1.0000   1.0000
     1.0000   1.0000   1.0000   1.0000   1.0000   1.0000   1.0000   1.0000
     1.0000   1.0000   1.0000   1.0000   1.0000   1.0000   1.0000   1.0000
     1.0000   1.0000   1.0000   1.0000   1.0000   1.0000   1.0000   1.0000
     1.0000   1.0000   1.0000   1.0000   1.0000   1.0000   1.0000   1.0000
     1.0000   1.0000   1.0000   1.0000   1.0000   1.0000   1.0000   1.0000
     1.0000   1.0000   1.0000   1.0000   1.0000   1.0000   1.0000   1.0000
     1.0000   1.0000   1.0000   1.0000   1.0000   1.0000   1.0000   1.0000
     1.0000   1.0000   1.0000   1.0000   1.0000   1.0000   1.0000   1.0000
     1.0000   1.0000   1.0000   1.0000   1.0000   1.0000   1.0000   1.0000
     1.0000   1.0000   1.0000   1.0000   1.0000   1.0000   1.0000   1.0000
     1.0000   1.0000   1.0000   1.0000   1.0000   1.0000   1.0000   1.0000
     1.0000   1.0000   1.0000   1.0000   1.0000   1.0000   1.0000   1.0000
     1.0000   1.0000   1.0000   1.0000   1.0000   1.0000   1.0000   1.0000
     1.0000   1.0000   1.0000   1.0000   1.0000   1.0000   1.0000   1.0000
     1.0000   1.0000   1.0000   1.0000   1.0000   1.0000   1.0000   1.0000
     1.0000   1.0000   1.0000   1.0000   1.0000   1.0000   1.0000   1.0000
     1.0000   1.0000   1.0000   1.0000   1.0000   1.0000   1.0000   1.0000
     1.0000   1.0000   1.0000   1.0000   1.0000   1.0000   1.0000   1.0000
     1.0000   1.0000   1.0000   1.0000   1.0000   1.0000   1.0000   1.0000
     1.0000   1.0000   1.0000   1.0000   1.0000   1.0000   1.0000   1.0000
     1.0000   1.0000   1.0000   1.0000   1.0000   1.0000   1.0000   1.0000
     1.0000   1.0000   1.0000   1.0000   1.0000   1.0000   1.0000   1.0000
     1.0000   1.0000   1.0000   1.0000   1.0000   1.0000   1.0000   1.0000
     1.0000   1.0000   1.0000   1.0000   1.0000   1.0000   1.0000   1.0000
     1.0000   1.0000   1.0000   1.0000   1.0000   1.0000   1.0000   1.0000
     1.0000   1.0000   1.0000   1.0000   1.0000   1.0000   1.0000   1.0000
     1.0000   1.0000   1.0000   1.0000   1.0000   1.0000   1.0000   1.0000
     1.0000   1.0000   1.0000   1.0000   1.0000   1.0000   1.0000   1.0000
     1.0000   1.0000   1.0000   1.0000   1.0000   1.0000   1.0000   1.0000
     1.0000   1.0000   1.0000   1.0000   1.0000   1.0000   1.0000   1.0000
     1.0000   1.0000   1.0000   1.0000   1.0000   1.0000   1.0000   1.0000
     1.0000   1.0000   1.0000   1.0000   1.0000   1.0000   1.0000   1.0000
     1.0000   1.0000   1.0000   1.0000   1.0000   1.0000   1.0000   1.0000
     1.0000   1.0000   1.0000   1.0000   1.0000   1.0000   1.0000   1.0000
     1.0000   1.0000   1.0000   1.0000   1.0000   1.0000   1.0000   1.0000
     1.0000   1.0000   1.0000   1.0000   1.0000   1.0000   1.0000   1.0000
     1.0000   1.0000

          k = 0.0001-0.0000 0.3978 ( 45598 PWs)   bands (ev):

  -115.3566-115.3521-115.3520-115.3518-115.3516-115.3515-115.3514-115.3514
  -115.3511-115.3508-115.3505-115.3502-115.3498-115.3495-115.3474-115.3466
  -115.3462-115.3456-115.3439-115.3430-115.3429-115.3427-115.3422-115.3408
  -115.3376-115.3334 -69.7159 -69.7127 -69.7110 -69.7110 -69.7108 -69.7106
   -69.7105 -69.7104 -69.7099 -69.7099 -69.7098 -69.7097 -69.7095 -69.7088
   -69.7088 -69.7088 -69.7086 -69.7085 -69.7082 -69.7082 -69.7079 -69.7078
   -69.7077 -69.7074 -69.7072 -69.7070 -69.7067 -69.7065 -69.7058 -69.7055
   -69.7054 -69.7054 -69.7051 -69.7049 -69.7049 -69.7048 -69.7045 -69.7044
   -69.7042 -69.7041 -69.7038 -69.7036 -69.7034 -69.7033 -69.7033 -69.7031
   -69.7031 -69.7021 -69.7018 -69.7013 -69.7013 -69.7011 -69.7011 -69.7008
   -69.7006 -69.7003 -69.7003 -69.7001 -69.6997 -69.6997 -69.6996 -69.6988
   -69.6987 -69.6983 -69.6983 -69.6981 -69.6968 -69.6965 -69.6964 -69.6958
   -69.6953 -69.6950 -69.6938 -69.6925 -69.6921 -69.6916 -69.6894 -69.6871
   -64.8601 -64.8416 -64.8403 -64.8373 -64.8286 -64.8266 -64.8262 -64.8228
   -64.8191 -64.8128 -31.8470 -31.8456 -31.8437 -31.8307 -31.8295 -31.8283
   -31.8264 -31.8253 -31.8245 -31.8243 -31.8229 -31.8198 -31.8195 -31.8192
   -31.8140 -31.8134 -31.8127 -31.8122 -31.8112 -31.8110 -31.8105 -31.8096
   -31.8086 -31.8077 -31.8055 -31.8021 -31.7993 -31.7979 -31.7955 -31.7923
    -9.9331  -9.8705  -9.5438  -9.5253  -9.5098  -9.4959  -9.4870  -9.4672
    -9.4597  -9.4437  -9.4362  -9.4097  -9.3921  -9.3459  -9.3247  -9.2934
    -9.2384  -9.2252  -9.2122  -9.1849  -9.1726  -9.1634  -9.1572  -9.1409
    -9.1330  -9.1270  -9.1239  -9.1158  -9.0844  -9.0596  -9.0257  -9.0066
    -8.9929  -8.9756  -8.9668  -8.8637   1.8228   1.8476   1.8491   1.8704
     1.8839   1.8943   1.9087   1.9244   1.9379   1.9466   1.9691   1.9968
     2.0146   2.0281   2.0397   2.0482   2.0754   2.1045   2.1236   2.1360
     2.1446   2.1542   2.1704   2.1793   2.1936   2.2058   2.2194   2.2325
     2.2446   2.2574   2.2721   2.2774   2.2839   2.3024   2.3152   2.3304
     2.3346   2.3450   2.3503   2.3746   2.3873   2.4097   2.4171   2.4214
     2.4257   2.4365   2.4507   2.4588   2.4698   2.4722   2.4849   2.4911
     2.5013   2.5068   2.5170   2.5250   2.5382   2.5435   2.5504   2.5580
     2.5756   2.5910   2.5981   2.6095   2.6146   2.6294   2.6390   2.6628
     2.6726   2.6825   2.7068   2.7390   2.7456   2.7588   2.7792   2.8109
     2.8341   2.8436   2.8500   2.8656   2.8924   2.9067   2.9208   2.9576
     2.9716   2.9857   3.0191   3.0350   3.0530   3.0613   3.0707   3.0824
     3.0912   3.1009   3.1305   3.1706   3.1770   3.1954   3.2193   3.2292
     3.2385   3.2476   3.2621   3.2699   3.2794   3.2836   3.3005   3.3047
     3.3173   3.3247   3.3292   3.3324   3.3456   3.3505   3.3579   3.3693
     3.3750   3.3819   3.3939   3.4031   3.4117   3.4154   3.4253   3.4411
     3.4553   3.4680   3.4746   3.4798   3.4954   3.5112   3.7144   3.7930
     3.8145   3.8474   3.8629   3.8970   3.9162   3.9418   3.9664   3.9759
     4.0140   4.0277   4.0466   4.0882   4.1414   4.1723   4.1820   4.2149
     4.2313   4.2560   4.2657   4.2995   4.3318   4.3520   4.3688   4.4508
     4.4614   4.5544   4.5851   4.6429   4.7361   4.7724   4.8043   4.8280
     4.8427   4.8647   4.8858   4.9584   5.1747   5.2181   5.2646   5.3019
     5.3404   5.4018   5.4385   5.4551   5.4784   5.4826   5.5328   5.5538
     5.5961   5.6370   5.6764   5.6883   5.7200   5.8780   5.9013   5.9092
     5.9401   5.9553   5.9737   5.9857   5.9955   6.0239   6.0411   6.0474
     6.0816   6.0987   6.1059   6.1353   6.1547   6.1711   6.1770   6.2048
     6.3563   6.4470   6.4747   6.5422   6.5563   6.5919   6.6221   6.6490
     6.6762   6.6841   6.7034   6.7324   6.7372   6.7635   6.7874   6.8030
     6.8143   6.8461   6.8617   6.8703   6.8840   6.9057   6.9188   6.9296
     6.9490   6.9725   6.9856   7.0159   7.0307   7.0475   7.3386   7.3729
     7.4308   7.4424

     occupation numbers 
     1.0000   1.0000   1.0000   1.0000   1.0000   1.0000   1.0000   1.0000
     1.0000   1.0000   1.0000   1.0000   1.0000   1.0000   1.0000   1.0000
     1.0000   1.0000   1.0000   1.0000   1.0000   1.0000   1.0000   1.0000
     1.0000   1.0000   1.0000   1.0000   1.0000   1.0000   1.0000   1.0000
     1.0000   1.0000   1.0000   1.0000   1.0000   1.0000   1.0000   1.0000
     1.0000   1.0000   1.0000   1.0000   1.0000   1.0000   1.0000   1.0000
     1.0000   1.0000   1.0000   1.0000   1.0000   1.0000   1.0000   1.0000
     1.0000   1.0000   1.0000   1.0000   1.0000   1.0000   1.0000   1.0000
     1.0000   1.0000   1.0000   1.0000   1.0000   1.0000   1.0000   1.0000
     1.0000   1.0000   1.0000   1.0000   1.0000   1.0000   1.0000   1.0000
     1.0000   1.0000   1.0000   1.0000   1.0000   1.0000   1.0000   1.0000
     1.0000   1.0000   1.0000   1.0000   1.0000   1.0000   1.0000   1.0000
     1.0000   1.0000   1.0000   1.0000   1.0000   1.0000   1.0000   1.0000
     1.0000   1.0000   1.0000   1.0000   1.0000   1.0000   1.0000   1.0000
     1.0000   1.0000   1.0000   1.0000   1.0000   1.0000   1.0000   1.0000
     1.0000   1.0000   1.0000   1.0000   1.0000   1.0000   1.0000   1.0000
     1.0000   1.0000   1.0000   1.0000   1.0000   1.0000   1.0000   1.0000
     1.0000   1.0000   1.0000   1.0000   1.0000   1.0000   1.0000   1.0000
     1.0000   1.0000   1.0000   1.0000   1.0000   1.0000   1.0000   1.0000
     1.0000   1.0000   1.0000   1.0000   1.0000   1.0000   1.0000   1.0000
     1.0000   1.0000   1.0000   1.0000   1.0000   1.0000   1.0000   1.0000
     1.0000   1.0000   1.0000   1.0000   1.0000   1.0000   1.0000   1.0000
     1.0000   1.0000   1.0000   1.0000   1.0000   1.0000   1.0000   1.0000
     1.0000   1.0000   1.0000   1.0000   1.0000   1.0000   1.0000   1.0000
     1.0000   1.0000   1.0000   1.0000   1.0000   1.0000   1.0000   1.0000
     1.0000   1.0000   1.0000   1.0000   1.0000   1.0000   1.0000   1.0000
     1.0000   1.0000   1.0000   1.0000   1.0000   1.0000   1.0000   1.0000
     1.0000   1.0000   1.0000   1.0000   1.0000   1.0000   1.0000   1.0000
     1.0000   1.0000   1.0000   1.0000   1.0000   1.0000   1.0000   1.0000
     1.0000   1.0000   1.0000   1.0000   1.0000   1.0000   1.0000   1.0000
     1.0000   1.0000   1.0000   1.0000   1.0000   1.0000   1.0000   1.0000
     1.0000   1.0000   1.0000   1.0000   1.0000   1.0000   1.0000   1.0000
     1.0000   1.0000   1.0000   1.0000   1.0000   1.0000   1.0000   1.0000
     1.0000   1.0000   1.0000   1.0000   1.0000   1.0000   1.0000   1.0000
     1.0000   1.0000   1.0000   1.0000   1.0000   1.0000   1.0000   1.0000
     1.0000   1.0000   1.0000   1.0000   1.0000   1.0000   1.0000   1.0000
     1.0000   1.0000   1.0000   1.0000   1.0000   1.0000   1.0000   1.0000
     1.0000   1.0000   1.0000   1.0000   1.0000   1.0000   1.0000   1.0000
     1.0000   1.0000   1.0000   1.0000   1.0000   1.0000   1.0000   1.0000
     1.0000   1.0000   1.0000   1.0000   1.0000   1.0000   1.0000   1.0000
     1.0000   1.0000   1.0000   1.0000   1.0000   1.0000   1.0000   1.0000
     1.0000   1.0000   1.0000   1.0000   1.0000   1.0000   1.0000   1.0000
     1.0000   1.0000   1.0000   1.0000   1.0000   1.0000   1.0000   1.0000
     1.0000   1.0000   1.0000   1.0000   1.0000   1.0000   1.0000   1.0000
     1.0000   1.0000   1.0000   1.0000   1.0000   1.0000   1.0000   1.0000
     1.0000   1.0000   1.0000   1.0000   1.0000   1.0000   1.0000   1.0000
     1.0000   1.0000   1.0000   1.0000   1.0000   1.0000   1.0000   1.0000
     1.0000   1.0000   1.0000   1.0000   1.0000   1.0000   1.0000   1.0000
     1.0000   1.0000   1.0000   1.0000   1.0000   1.0000   1.0000   1.0000
     1.0000   1.0000   1.0000   1.0000   1.0000   1.0000   1.0000   1.0000
     1.0000   1.0000   1.0000   1.0000   1.0000   1.0000   1.0000   1.0000
     1.0000   1.0000   1.0000   1.0000   1.0000   1.0000   1.0000   1.0000
     1.0000   1.0000

          k = 0.0001-0.0001 0.5304 ( 45598 PWs)   bands (ev):

  -115.3566-115.3521-115.3520-115.3518-115.3516-115.3515-115.3514-115.3514
  -115.3511-115.3508-115.3505-115.3502-115.3498-115.3495-115.3474-115.3466
  -115.3462-115.3456-115.3439-115.3430-115.3429-115.3427-115.3422-115.3408
  -115.3376-115.3334 -69.7159 -69.7127 -69.7110 -69.7110 -69.7108 -69.7106
   -69.7105 -69.7104 -69.7099 -69.7099 -69.7098 -69.7097 -69.7095 -69.7088
   -69.7088 -69.7088 -69.7086 -69.7085 -69.7082 -69.7082 -69.7079 -69.7078
   -69.7077 -69.7074 -69.7072 -69.7070 -69.7067 -69.7065 -69.7058 -69.7055
   -69.7054 -69.7054 -69.7051 -69.7049 -69.7049 -69.7048 -69.7045 -69.7044
   -69.7042 -69.7041 -69.7038 -69.7036 -69.7034 -69.7033 -69.7033 -69.7031
   -69.7031 -69.7021 -69.7018 -69.7013 -69.7013 -69.7011 -69.7011 -69.7008
   -69.7006 -69.7003 -69.7003 -69.7001 -69.6997 -69.6997 -69.6996 -69.6988
   -69.6987 -69.6983 -69.6983 -69.6981 -69.6968 -69.6965 -69.6964 -69.6958
   -69.6953 -69.6950 -69.6938 -69.6925 -69.6921 -69.6916 -69.6894 -69.6871
   -64.8601 -64.8416 -64.8403 -64.8373 -64.8286 -64.8266 -64.8262 -64.8228
   -64.8191 -64.8128 -31.8470 -31.8456 -31.8437 -31.8307 -31.8295 -31.8283
   -31.8264 -31.8253 -31.8245 -31.8243 -31.8229 -31.8198 -31.8195 -31.8192
   -31.8140 -31.8134 -31.8127 -31.8122 -31.8112 -31.8110 -31.8105 -31.8096
   -31.8086 -31.8077 -31.8055 -31.8021 -31.7993 -31.7979 -31.7955 -31.7923
    -9.9331  -9.8705  -9.5438  -9.5253  -9.5098  -9.4959  -9.4870  -9.4672
    -9.4597  -9.4437  -9.4362  -9.4097  -9.3921  -9.3459  -9.3247  -9.2934
    -9.2384  -9.2252  -9.2122  -9.1849  -9.1726  -9.1634  -9.1572  -9.1409
    -9.1330  -9.1270  -9.1239  -9.1158  -9.0844  -9.0596  -9.0257  -9.0066
    -8.9929  -8.9756  -8.9668  -8.8637   1.8228   1.8476   1.8491   1.8704
     1.8839   1.8943   1.9087   1.9244   1.9379   1.9466   1.9691   1.9968
     2.0146   2.0281   2.0397   2.0482   2.0754   2.1045   2.1236   2.1360
     2.1446   2.1542   2.1704   2.1793   2.1936   2.2058   2.2194   2.2325
     2.2446   2.2574   2.2721   2.2774   2.2839   2.3024   2.3152   2.3304
     2.3346   2.3450   2.3503   2.3746   2.3873   2.4097   2.4171   2.4214
     2.4257   2.4365   2.4507   2.4588   2.4698   2.4722   2.4849   2.4911
     2.5013   2.5068   2.5170   2.5250   2.5382   2.5435   2.5504   2.5580
     2.5756   2.5910   2.5981   2.6095   2.6146   2.6294   2.6390   2.6628
     2.6726   2.6825   2.7068   2.7390   2.7456   2.7588   2.7792   2.8109
     2.8341   2.8436   2.8500   2.8656   2.8924   2.9067   2.9208   2.9576
     2.9716   2.9857   3.0191   3.0350   3.0530   3.0613   3.0707   3.0824
     3.0912   3.1009   3.1305   3.1706   3.1770   3.1954   3.2193   3.2292
     3.2385   3.2476   3.2621   3.2699   3.2794   3.2836   3.3005   3.3047
     3.3173   3.3247   3.3292   3.3324   3.3456   3.3505   3.3579   3.3693
     3.3750   3.3819   3.3939   3.4031   3.4117   3.4154   3.4253   3.4411
     3.4553   3.4680   3.4746   3.4798   3.4954   3.5112   3.7144   3.7930
     3.8145   3.8474   3.8629   3.8970   3.9162   3.9418   3.9664   3.9759
     4.0140   4.0277   4.0466   4.0882   4.1414   4.1723   4.1820   4.2149
     4.2313   4.2560   4.2657   4.2995   4.3318   4.3520   4.3688   4.4508
     4.4614   4.5544   4.5851   4.6429   4.7361   4.7724   4.8043   4.8280
     4.8427   4.8647   4.8858   4.9584   5.1747   5.2181   5.2646   5.3019
     5.3404   5.4018   5.4385   5.4551   5.4784   5.4826   5.5328   5.5538
     5.5961   5.6370   5.6764   5.6883   5.7200   5.8780   5.9013   5.9092
     5.9401   5.9553   5.9737   5.9857   5.9955   6.0239   6.0411   6.0474
     6.0816   6.0987   6.1059   6.1353   6.1547   6.1711   6.1770   6.2048
     6.3563   6.4470   6.4747   6.5422   6.5563   6.5919   6.6221   6.6490
     6.6762   6.6841   6.7034   6.7324   6.7372   6.7635   6.7874   6.8030
     6.8143   6.8461   6.8617   6.8703   6.8840   6.9057   6.9188   6.9296
     6.9490   6.9725   6.9856   7.0159   7.0307   7.0475   7.3386   7.3729
     7.4308   7.4424

     occupation numbers 
     1.0000   1.0000   1.0000   1.0000   1.0000   1.0000   1.0000   1.0000
     1.0000   1.0000   1.0000   1.0000   1.0000   1.0000   1.0000   1.0000
     1.0000   1.0000   1.0000   1.0000   1.0000   1.0000   1.0000   1.0000
     1.0000   1.0000   1.0000   1.0000   1.0000   1.0000   1.0000   1.0000
     1.0000   1.0000   1.0000   1.0000   1.0000   1.0000   1.0000   1.0000
     1.0000   1.0000   1.0000   1.0000   1.0000   1.0000   1.0000   1.0000
     1.0000   1.0000   1.0000   1.0000   1.0000   1.0000   1.0000   1.0000
     1.0000   1.0000   1.0000   1.0000   1.0000   1.0000   1.0000   1.0000
     1.0000   1.0000   1.0000   1.0000   1.0000   1.0000   1.0000   1.0000
     1.0000   1.0000   1.0000   1.0000   1.0000   1.0000   1.0000   1.0000
     1.0000   1.0000   1.0000   1.0000   1.0000   1.0000   1.0000   1.0000
     1.0000   1.0000   1.0000   1.0000   1.0000   1.0000   1.0000   1.0000
     1.0000   1.0000   1.0000   1.0000   1.0000   1.0000   1.0000   1.0000
     1.0000   1.0000   1.0000   1.0000   1.0000   1.0000   1.0000   1.0000
     1.0000   1.0000   1.0000   1.0000   1.0000   1.0000   1.0000   1.0000
     1.0000   1.0000   1.0000   1.0000   1.0000   1.0000   1.0000   1.0000
     1.0000   1.0000   1.0000   1.0000   1.0000   1.0000   1.0000   1.0000
     1.0000   1.0000   1.0000   1.0000   1.0000   1.0000   1.0000   1.0000
     1.0000   1.0000   1.0000   1.0000   1.0000   1.0000   1.0000   1.0000
     1.0000   1.0000   1.0000   1.0000   1.0000   1.0000   1.0000   1.0000
     1.0000   1.0000   1.0000   1.0000   1.0000   1.0000   1.0000   1.0000
     1.0000   1.0000   1.0000   1.0000   1.0000   1.0000   1.0000   1.0000
     1.0000   1.0000   1.0000   1.0000   1.0000   1.0000   1.0000   1.0000
     1.0000   1.0000   1.0000   1.0000   1.0000   1.0000   1.0000   1.0000
     1.0000   1.0000   1.0000   1.0000   1.0000   1.0000   1.0000   1.0000
     1.0000   1.0000   1.0000   1.0000   1.0000   1.0000   1.0000   1.0000
     1.0000   1.0000   1.0000   1.0000   1.0000   1.0000   1.0000   1.0000
     1.0000   1.0000   1.0000   1.0000   1.0000   1.0000   1.0000   1.0000
     1.0000   1.0000   1.0000   1.0000   1.0000   1.0000   1.0000   1.0000
     1.0000   1.0000   1.0000   1.0000   1.0000   1.0000   1.0000   1.0000
     1.0000   1.0000   1.0000   1.0000   1.0000   1.0000   1.0000   1.0000
     1.0000   1.0000   1.0000   1.0000   1.0000   1.0000   1.0000   1.0000
     1.0000   1.0000   1.0000   1.0000   1.0000   1.0000   1.0000   1.0000
     1.0000   1.0000   1.0000   1.0000   1.0000   1.0000   1.0000   1.0000
     1.0000   1.0000   1.0000   1.0000   1.0000   1.0000   1.0000   1.0000
     1.0000   1.0000   1.0000   1.0000   1.0000   1.0000   1.0000   1.0000
     1.0000   1.0000   1.0000   1.0000   1.0000   1.0000   1.0000   1.0000
     1.0000   1.0000   1.0000   1.0000   1.0000   1.0000   1.0000   1.0000
     1.0000   1.0000   1.0000   1.0000   1.0000   1.0000   1.0000   1.0000
     1.0000   1.0000   1.0000   1.0000   1.0000   1.0000   1.0000   1.0000
     1.0000   1.0000   1.0000   1.0000   1.0000   1.0000   1.0000   1.0000
     1.0000   1.0000   1.0000   1.0000   1.0000   1.0000   1.0000   1.0000
     1.0000   1.0000   1.0000   1.0000   1.0000   1.0000   1.0000   1.0000
     1.0000   1.0000   1.0000   1.0000   1.0000   1.0000   1.0000   1.0000
     1.0000   1.0000   1.0000   1.0000   1.0000   1.0000   1.0000   1.0000
     1.0000   1.0000   1.0000   1.0000   1.0000   1.0000   1.0000   1.0000
     1.0000   1.0000   1.0000   1.0000   1.0000   1.0000   1.0000   1.0000
     1.0000   1.0000   1.0000   1.0000   1.0000   1.0000   1.0000   1.0000
     1.0000   1.0000   1.0000   1.0000   1.0000   1.0000   1.0000   1.0000
     1.0000   1.0000   1.0000   1.0000   1.0000   1.0000   1.0000   1.0000
     1.0000   1.0000   1.0000   1.0000   1.0000   1.0000   1.0000   1.0000
     1.0000   1.0000   1.0000   1.0000   1.0000   1.0000   1.0000   1.0000
     1.0000   1.0000

          k = 0.0002-0.0001 0.6630 ( 45613 PWs)   bands (ev):

  -115.3566-115.3521-115.3520-115.3518-115.3516-115.3515-115.3514-115.3514
  -115.3511-115.3508-115.3505-115.3502-115.3498-115.3495-115.3474-115.3466
  -115.3462-115.3456-115.3439-115.3430-115.3429-115.3427-115.3422-115.3408
  -115.3376-115.3334 -69.7159 -69.7127 -69.7110 -69.7110 -69.7108 -69.7106
   -69.7105 -69.7104 -69.7099 -69.7099 -69.7098 -69.7097 -69.7095 -69.7088
   -69.7088 -69.7087 -69.7086 -69.7085 -69.7082 -69.7082 -69.7079 -69.7078
   -69.7077 -69.7074 -69.7072 -69.7070 -69.7067 -69.7065 -69.7058 -69.7055
   -69.7054 -69.7054 -69.7051 -69.7049 -69.7049 -69.7048 -69.7045 -69.7044
   -69.7042 -69.7041 -69.7038 -69.7036 -69.7034 -69.7033 -69.7033 -69.7031
   -69.7031 -69.7021 -69.7018 -69.7013 -69.7013 -69.7011 -69.7011 -69.7008
   -69.7006 -69.7003 -69.7003 -69.7001 -69.6997 -69.6997 -69.6996 -69.6988
   -69.6987 -69.6983 -69.6983 -69.6981 -69.6968 -69.6965 -69.6964 -69.6958
   -69.6953 -69.6950 -69.6938 -69.6925 -69.6921 -69.6916 -69.6894 -69.6871
   -64.8601 -64.8416 -64.8403 -64.8373 -64.8286 -64.8266 -64.8262 -64.8228
   -64.8191 -64.8128 -31.8470 -31.8456 -31.8437 -31.8307 -31.8295 -31.8283
   -31.8264 -31.8253 -31.8245 -31.8243 -31.8229 -31.8198 -31.8195 -31.8192
   -31.8140 -31.8134 -31.8127 -31.8122 -31.8112 -31.8110 -31.8105 -31.8096
   -31.8086 -31.8077 -31.8055 -31.8021 -31.7993 -31.7979 -31.7955 -31.7923
    -9.9699  -9.8107  -9.5729  -9.5349  -9.5270  -9.5056  -9.4826  -9.4772
    -9.4582  -9.4346  -9.4184  -9.3913  -9.3693  -9.3427  -9.3051  -9.2868
    -9.2480  -9.2414  -9.2245  -9.1988  -9.1816  -9.1758  -9.1561  -9.1413
    -9.1347  -9.1273  -9.1247  -9.1097  -9.0853  -9.0549  -9.0252  -9.0056
    -8.9863  -8.9723  -8.9649  -8.8622   1.8204   1.8380   1.8421   1.8626
     1.8691   1.8877   1.9080   1.9252   1.9310   1.9473   1.9587   1.9711
     1.9884   2.0006   2.0217   2.0301   2.0597   2.0865   2.1065   2.1231
     2.1528   2.1733   2.1798   2.1939   2.2165   2.2230   2.2337   2.2423
     2.2507   2.2594   2.2770   2.2861   2.2971   2.3042   2.3210   2.3272
     2.3392   2.3485   2.3517   2.3715   2.3823   2.4052   2.4074   2.4124
     2.4221   2.4403   2.4490   2.4581   2.4616   2.4784   2.4830   2.4908
     2.5027   2.5109   2.5199   2.5235   2.5321   2.5424   2.5457   2.5551
     2.5669   2.6040   2.6307   2.6354   2.6449   2.6549   2.6634   2.6860
     2.7006   2.7045   2.7156   2.7440   2.7505   2.7774   2.8010   2.8133
     2.8415   2.8501   2.8665   2.8796   2.9011   2.9092   2.9443   2.9633
     2.9830   2.9910   3.0260   3.0401   3.0529   3.0698   3.0756   3.0889
     3.0968   3.1165   3.1419   3.1602   3.1738   3.1882   3.2156   3.2307
     3.2378   3.2410   3.2600   3.2702   3.2767   3.2858   3.3022   3.3075
     3.3160   3.3230   3.3277   3.3365   3.3418   3.3487   3.3548   3.3670
[...]
    -9.8704  -9.8459  -9.6389  -9.6321  -9.5520  -9.5427  -9.5308  -9.4886
    -9.4034  -9.3942  -9.3618  -9.3413  -9.3259  -9.3170  -9.2951  -9.2838
    -9.2614  -9.2471  -9.2238  -9.2026  -9.1984  -9.1851  -9.1732  -9.1567
    -9.1489  -9.1344  -9.1258  -9.0995  -9.0699  -9.0646  -9.0305  -9.0135
    -8.9767  -8.9654  -8.9435  -8.8606   1.8570   1.8621   1.8767   1.8945
     1.9039   1.9230   1.9404   1.9484   1.9650   1.9751   1.9840   1.9882
     2.0052   2.0192   2.0298   2.0411   2.0625   2.0820   2.1020   2.1100
     2.1202   2.1328   2.1391   2.1565   2.1651   2.2142   2.2195   2.2235
     2.2405   2.2590   2.2692   2.2780   2.2858   2.2941   2.3145   2.3218
     2.3267   2.3383   2.3480   2.3595   2.3734   2.3781   2.3925   2.4026
     2.4085   2.4196   2.4374   2.4423   2.4471   2.4509   2.4676   2.4731
     2.4853   2.4981   2.5090   2.5177   2.5323   2.5414   2.5603   2.5653
     2.5756   2.5937   2.6099   2.6175   2.6303   2.6390   2.6429   2.6761
     2.6852   2.6926   2.7202   2.7266   2.7419   2.7765   2.7875   2.8049
     2.8286   2.8522   2.8685   2.8855   2.8984   2.9310   2.9489   2.9680
     2.9886   3.0007   3.0209   3.0434   3.0500   3.0674   3.0954   3.1213
     3.1286   3.1365   3.1472   3.1632   3.1675   3.1857   3.1903   3.2104
     3.2213   3.2360   3.2538   3.2563   3.2629   3.2863   3.2952   3.3006
     3.3137   3.3199   3.3321   3.3392   3.3672   3.3715   3.3724   3.3811
     3.3971   3.4038   3.4130   3.4155   3.4188   3.4242   3.4371   3.4450
     3.4711   3.4755   3.4810   3.4914   3.4950   3.5033   3.5340   3.5440
     3.6359   3.6870   3.7293   3.7453   3.7771   3.7889   3.8202   3.8756
     3.9214   3.9611   4.0024   4.0417   4.0929   4.1382   4.1685   4.2054
     4.2236   4.2583   4.3225   4.3848   4.4334   4.4912   4.5748   4.6673
     4.6966   4.7503   4.8197   4.8545   4.9114   4.9632   4.9726   4.9917
     5.0338   5.0701   5.0800   5.1222   5.1807   5.1977   5.2358   5.2443
     5.3279   5.3927   5.4140   5.4487   5.4769   5.5049   5.5464   5.5802
     5.6040   5.6225   5.7158   5.7335   5.7963   5.8630   5.9296   5.9675
     5.9972   6.0539   6.0712   6.0968   6.1242   6.1506   6.1625   6.1750
     6.2017   6.2052   6.2473   6.2751   6.3002   6.3180   6.3452   6.3496
     6.3663   6.3803   6.3878   6.4023   6.4183   6.4234   6.4328   6.4452
     6.4475   6.4727   6.4886   6.5193   6.5297   6.5424   6.5719   6.5817
     6.6240   6.6402   6.6546   6.7097   6.7324   6.7947   6.8744   6.8817
     6.9153   6.9255   6.9392   6.9647   6.9977   7.0365   7.2641   7.2957
     7.3179   7.3303

     occupation numbers 
     1.0000   1.0000   1.0000   1.0000   1.0000   1.0000   1.0000   1.0000
     1.0000   1.0000   1.0000   1.0000   1.0000   1.0000   1.0000   1.0000
     1.0000   1.0000   1.0000   1.0000   1.0000   1.0000   1.0000   1.0000
     1.0000   1.0000   1.0000   1.0000   1.0000   1.0000   1.0000   1.0000
     1.0000   1.0000   1.0000   1.0000   1.0000   1.0000   1.0000   1.0000
     1.0000   1.0000   1.0000   1.0000   1.0000   1.0000   1.0000   1.0000
     1.0000   1.0000   1.0000   1.0000   1.0000   1.0000   1.0000   1.0000
     1.0000   1.0000   1.0000   1.0000   1.0000   1.0000   1.0000   1.0000
     1.0000   1.0000   1.0000   1.0000   1.0000   1.0000   1.0000   1.0000
     1.0000   1.0000   1.0000   1.0000   1.0000   1.0000   1.0000   1.0000
     1.0000   1.0000   1.0000   1.0000   1.0000   1.0000   1.0000   1.0000
     1.0000   1.0000   1.0000   1.0000   1.0000   1.0000   1.0000   1.0000
     1.0000   1.0000   1.0000   1.0000   1.0000   1.0000   1.0000   1.0000
     1.0000   1.0000   1.0000   1.0000   1.0000   1.0000   1.0000   1.0000
     1.0000   1.0000   1.0000   1.0000   1.0000   1.0000   1.0000   1.0000
     1.0000   1.0000   1.0000   1.0000   1.0000   1.0000   1.0000   1.0000
     1.0000   1.0000   1.0000   1.0000   1.0000   1.0000   1.0000   1.0000
     1.0000   1.0000   1.0000   1.0000   1.0000   1.0000   1.0000   1.0000
     1.0000   1.0000   1.0000   1.0000   1.0000   1.0000   1.0000   1.0000
     1.0000   1.0000   1.0000   1.0000   1.0000   1.0000   1.0000   1.0000
     1.0000   1.0000   1.0000   1.0000   1.0000   1.0000   1.0000   1.0000
     1.0000   1.0000   1.0000   1.0000   1.0000   1.0000   1.0000   1.0000
     1.0000   1.0000   1.0000   1.0000   1.0000   1.0000   1.0000   1.0000
     1.0000   1.0000   1.0000   1.0000   1.0000   1.0000   1.0000   1.0000
     1.0000   1.0000   1.0000   1.0000   1.0000   1.0000   1.0000   1.0000
     1.0000   1.0000   1.0000   1.0000   1.0000   1.0000   1.0000   1.0000
     1.0000   1.0000   1.0000   1.0000   1.0000   1.0000   1.0000   1.0000
     1.0000   1.0000   1.0000   1.0000   1.0000   1.0000   1.0000   1.0000
     1.0000   1.0000   1.0000   1.0000   1.0000   1.0000   1.0000   1.0000
     1.0000   1.0000   1.0000   1.0000   1.0000   1.0000   1.0000   1.0000
     1.0000   1.0000   1.0000   1.0000   1.0000   1.0000   1.0000   1.0000
     1.0000   1.0000   1.0000   1.0000   1.0000   1.0000   1.0000   1.0000
     1.0000   1.0000   1.0000   1.0000   1.0000   1.0000   1.0000   1.0000
     1.0000   1.0000   1.0000   1.0000   1.0000   1.0000   1.0000   1.0000
     1.0000   1.0000   1.0000   1.0000   1.0000   1.0000   1.0000   1.0000
     1.0000   1.0000   1.0000   1.0000   1.0000   1.0000   1.0000   1.0000
     1.0000   1.0000   1.0000   1.0000   1.0000   1.0000   1.0000   1.0000
     1.0000   1.0000   1.0000   1.0000   1.0000   1.0000   1.0000   1.0000
     1.0000   1.0000   1.0000   1.0000   1.0000   1.0000   1.0000   1.0000
     1.0000   1.0000   1.0000   1.0000   1.0000   1.0000   1.0000   1.0000
     1.0000   1.0000   1.0000   1.0000   1.0000   1.0000   1.0000   1.0000
     1.0000   1.0000   1.0000   1.0000   1.0000   1.0000   1.0000   1.0000
     1.0000   1.0000   1.0000   1.0000   1.0000   1.0000   1.0000   1.0000
     1.0000   1.0000   1.0000   1.0000   1.0000   1.0000   1.0000   1.0000
     1.0000   1.0000   1.0000   1.0000   1.0000   1.0000   1.0000   1.0000
     1.0000   1.0000   1.0000   1.0000   1.0000   1.0000   1.0000   1.0000
     1.0000   1.0000   1.0000   1.0000   1.0000   1.0000   1.0000   1.0000
     1.0000   1.0000   1.0000   1.0000   1.0000   1.0000   1.0000   1.0000
     1.0000   1.0000   1.0000   1.0000   1.0000   1.0000   1.0000   1.0000
     1.0000   1.0000   1.0000   1.0000   1.0000   1.0000   1.0000   1.0000
     1.0000   1.0000   1.0000   1.0000   1.0000   1.0000   1.0000   1.0000
     1.0000   1.0000   1.0000   1.0000   1.0000   1.0000   1.0000   1.0000
     1.0000   1.0000

     highest occupied level (ev):     7.4913



               ==================================================
                            POLARIZATION CALCULATION
                         !!! NOT THOROUGHLY TESTED !!!
               --------------------------------------------------


                     K-POINTS STRINGS USED IN CALCULATIONS
                     ~~~~~~~~~~~~~~~~~~~~~~~~~~~~~~~~~~~~~

       G-vector along string (2 pi/a):  0.00023 -0.00009  0.92816
       Modulus of the vector (1/bohr):  0.31701
       Number of k-points per string:   8
       Number of different strings  :  10


                               IONIC POLARIZATION
                               ~~~~~~~~~~~~~~~~~~

        Note: (mod 1) means that the phases (angles ranging from
        -pi to pi) have been mapped to the interval [-1/2,+1/2) by
        dividing by 2*pi; (mod 2) refers to the interval [-1,+1)

  ============================================================================
    Ion    Species    Charge              Position                Phase
  ----------------------------------------------------------------------------
     1        Zn      20.000       0.1677  0.0964  0.2080    -0.13897 (mod 2)
     2        Zn      20.000       0.1666  0.0967  0.7467    -0.13801 (mod 2)
     3        Zn      20.000      -0.0009  0.3858  0.2079    -0.14208 (mod 2)
     4        Zn      20.000      -0.0006  0.3847  0.7462    -0.14934 (mod 2)
     5        Zn      20.000      -0.1675  0.6739  0.2078    -0.14482 (mod 2)
     6        Zn      20.000      -0.1680  0.6746  0.7461    -0.15178 (mod 2)
     7        Zn      20.000       0.4990  0.0946  0.2078    -0.14113 (mod 2)
     8        Mg      10.000       0.4997  0.0950  0.7488     0.95115 (mod 2)
     9        Zn      20.000       0.3324  0.3851  0.2080    -0.13790 (mod 2)
    10        Mg      10.000       0.3320  0.3857  0.7487     0.94967 (mod 2)
    11        Mg      10.000       0.1648  0.6746  0.2093    -0.05765 (mod 2)
    12        Zn      20.000       0.1637  0.6729  0.7462    -0.14772 (mod 2)
    13        Zn      20.000       0.8316  0.0917  0.2083    -0.12964 (mod 2)
    14        Zn      20.000       0.8341  0.0976  0.7470    -0.12990 (mod 2)
    15        Mg      10.000       0.6649  0.3823  0.2083    -0.06510 (mod 2)
    16        Zn      20.000       0.6661  0.3846  0.7454    -0.15998 (mod 2)
    17        Mg      10.000       0.4971  0.6740  0.2090    -0.05948 (mod 2)
    18        Zn      20.000       0.5014  0.6735  0.7451    -0.16660 (mod 2)
    19        Zn      20.000      -0.0001  0.1933  0.4768     0.85140 (mod 2)
    20        Mg      10.000       0.0007  0.1932  1.0188    -0.54424 (mod 2)
    21        Mg      10.000      -0.1663  0.4823  0.4776     0.43243 (mod 2)
    22        Mg      10.000      -0.1666  0.4822  1.0158    -0.57214 (mod 2)
    23        Zn      20.000      -0.3331  0.7716  0.4768     0.84718 (mod 2)
    24        Mg      10.000      -0.3334  0.7717  1.0171    -0.56075 (mod 2)
    25        Zn      20.000       0.3340  0.1931  0.4773     0.86198 (mod 2)
    26        Zn      20.000       0.3321  0.1922  1.0160     0.86061 (mod 2)
    27        Zn      20.000       0.1666  0.4800  0.4773     0.85932 (mod 2)
    28        Zn      20.000       0.1648  0.4824  1.0167     0.87353 (mod 2)
    29        Zn      20.000      -0.0023  0.7719  0.4776     0.86493 (mod 2)
    30        Zn      20.000      -0.0008  0.7690  1.0167     0.87104 (mod 2)
    31        Zn      20.000       0.6657  0.1912  0.4775     0.86638 (mod 2)
    32        Zn      20.000       0.6669  0.1928  1.0163     0.86907 (mod 2)
    33        Zn      20.000       0.4986  0.4802  0.4762     0.84135 (mod 2)
    34        Zn      20.000       0.5008  0.4821  1.0160     0.86208 (mod 2)
    35        Mg      10.000       0.3321  0.7714  0.4796     0.45170 (mod 2)
    36        Zn      20.000       0.3322  0.7689  1.0142     0.82717 (mod 2)
    37        O        6.000       0.1666  0.0959  0.0040     0.02250 (mod 2)
    38        O        6.000       0.1665  0.0966  0.5422    -0.98010 (mod 2)
    39        O        6.000      -0.0012  0.3853  0.0037     0.02045 (mod 2)
    40        O        6.000      -0.0006  0.3852  0.5423    -0.98009 (mod 2)
    41        O        6.000      -0.1679  0.6737  0.0034     0.01834 (mod 2)
    42        O        6.000      -0.1679  0.6743  0.5424    -0.97999 (mod 2)
    43        O        6.000       0.4999  0.0955  0.0029     0.01675 (mod 2)
    44        O        6.000       0.4994  0.0960  0.5448    -0.96529 (mod 2)
    45        O        6.000       0.3331  0.3855  0.0028     0.01587 (mod 2)
    46        O        6.000       0.3328  0.3850  0.5447    -0.96645 (mod 2)
    47        O        6.000       0.1663  0.6742  0.0055     0.03071 (mod 2)
    48        O        6.000       0.1650  0.6739  0.5414    -0.98512 (mod 2)
    49        O        6.000       0.8336  0.0946  0.0035     0.02039 (mod 2)
    50        O        6.000       0.8332  0.0963  0.5429    -0.97569 (mod 2)
    51        O        6.000       0.6674  0.3850  0.0047     0.02694 (mod 2)
    52        O        6.000       0.6664  0.3847  0.5406    -0.98856 (mod 2)
    53        O        6.000       0.4999  0.6746  0.0049     0.02749 (mod 2)
    54        O        6.000       0.4993  0.6738  0.5407    -0.98860 (mod 2)
    55        O        6.000      -0.0009  0.1920  0.2719    -0.48576 (mod 2)
    56        O        6.000       0.0005  0.1930  0.8145     0.53588 (mod 2)
    57        O        6.000      -0.1686  0.4808  0.2736    -0.47680 (mod 2)
    58        O        6.000      -0.1673  0.4818  0.8115     0.51869 (mod 2)
    59        O        6.000      -0.3348  0.7706  0.2720    -0.48594 (mod 2)
    60        O        6.000      -0.3338  0.7716  0.8132     0.52782 (mod 2)
    61        O        6.000       0.3336  0.1928  0.2734    -0.47694 (mod 2)
    62        O        6.000       0.3337  0.1929  0.8116     0.51996 (mod 2)
    63        O        6.000       0.1659  0.4816  0.2730    -0.47988 (mod 2)
    64        O        6.000       0.1656  0.4815  0.8125     0.52457 (mod 2)
    65        O        6.000      -0.0017  0.7702  0.2735    -0.47755 (mod 2)
    66        O        6.000      -0.0012  0.7702  0.8125     0.52432 (mod 2)
    67        O        6.000       0.6660  0.1904  0.2732    -0.47802 (mod 2)
    68        O        6.000       0.6663  0.1922  0.8119     0.52224 (mod 2)
    69        O        6.000       0.4996  0.4811  0.2720    -0.48482 (mod 2)
    70        O        6.000       0.4997  0.4813  0.8116     0.52002 (mod 2)
    71        O        6.000       0.3314  0.7683  0.2760    -0.46297 (mod 2)
    72        O        6.000       0.3326  0.7699  0.8093     0.50700 (mod 2)
  ----------------------------------------------------------------------------
                                               IONIC PHASE:  -0.01492 (mod 2)
  ============================================================================


                            ELECTRONIC POLARIZATION
                            ~~~~~~~~~~~~~~~~~~~~~~~

        Note: (mod 1) means that the phases (angles ranging from
        -pi to pi) have been mapped to the interval [-1/2,+1/2) by
        dividing by 2*pi; (mod 2) refers to the interval [-1,+1)

  ============================================================================
   Spin    String     Weight      First k-point in string         Phase
  ----------------------------------------------------------------------------
    up        1      0.062500      0.0000  0.0000  0.0000    -0.14160 (mod 1)
    up        2      0.125000      0.0003  0.2884 -0.0000    -0.14616 (mod 1)
    up        3      0.062500     -0.0007 -0.5769  0.0001    -0.14898 (mod 1)
    up        4      0.125000      0.2502  0.1445  0.0000    -0.14612 (mod 1)
    up        5      0.125000      0.2505  0.4329  0.0000    -0.14899 (mod 1)
    up        6      0.125000      0.2495 -0.4324  0.0001    -0.14902 (mod 1)
    up        7      0.125000      0.2498 -0.1439  0.0001    -0.14620 (mod 1)
    up        8      0.062500     -0.5003 -0.2890 -0.0001    -0.14896 (mod 1)
    up        9      0.125000     -0.5000 -0.0006 -0.0001    -0.14901 (mod 1)
    up       10      0.062500     -0.5010 -0.8659 -0.0000    -0.14901 (mod 1)
  ----------------------------------------------------------------------------
   down       1      0.062500      0.0000  0.0000  0.0000    -0.14160 (mod 1)
   down       2      0.125000      0.0003  0.2884 -0.0000    -0.14616 (mod 1)
   down       3      0.062500     -0.0007 -0.5769  0.0001    -0.14898 (mod 1)
   down       4      0.125000      0.2502  0.1445  0.0000    -0.14612 (mod 1)
   down       5      0.125000      0.2505  0.4329  0.0000    -0.14899 (mod 1)
   down       6      0.125000      0.2495 -0.4324  0.0001    -0.14902 (mod 1)
   down       7      0.125000      0.2498 -0.1439  0.0001    -0.14620 (mod 1)
   down       8      0.062500     -0.5003 -0.2890 -0.0001    -0.14896 (mod 1)
   down       9      0.125000     -0.5000 -0.0006 -0.0001    -0.14901 (mod 1)
   down      10      0.062500     -0.5010 -0.8659 -0.0000    -0.14901 (mod 1)
  ----------------------------------------------------------------------------
                                        Average phase (up):  -0.14747 (mod 1)
                                      Average phase (down):  -0.14747 (mod 1)
                                          ELECTRONIC PHASE:  -0.29494 (mod 2)
  ============================================================================


                               SUMMARY OF PHASES
                               ~~~~~~~~~~~~~~~~~

                          Ionic Phase: -0.01492 (mod 2)
                     Electronic Phase: -0.29494 (mod 2)
                          TOTAL PHASE: -0.30986 (mod 2)


                             VALUES OF POLARIZATION
                             ~~~~~~~~~~~~~~~~~~~~~~

        The calculation of phases done along the direction of vector 3
        of the reciprocal lattice gives the following contribution to
        the polarization vector (in different units, and being Omega
        the volume of the unit cell):

           P =  -6.1414258  (mod  39.6399998)  (e/Omega).bohr

           P =  -0.0010564  (mod   0.0068184)  e/bohr^2

           P =  -0.0603947  (mod   0.3898196)  C/m^2

        The polarization direction is:  (-0.00025 , 0.00010 , 1.00000 )


               ==================================================



     Writing output data file ZnO.save/
 
     init_run     :      2.21s CPU      5.49s WALL (       1 calls)
     electrons    :   1796.55s CPU   1850.75s WALL (       1 calls)

     Called by init_run:
     wfcinit      :      0.00s CPU      0.00s WALL (       1 calls)
     wfcinit:atom :      0.06s CPU      0.17s WALL (      80 calls)
     wfcinit:wfcr :     69.88s CPU     71.74s WALL (      80 calls)
     potinit      :      0.20s CPU      0.34s WALL (       1 calls)
     hinit0       :      1.26s CPU      4.18s WALL (       1 calls)

     Called by electrons:
     c_bands      :   1367.63s CPU   1420.26s WALL (       1 calls)
     v_of_rho     :      0.15s CPU      0.17s WALL (       1 calls)
     v_h          :      0.01s CPU      0.01s WALL (       1 calls)
     v_xc         :      0.14s CPU      0.15s WALL (       1 calls)
     newd         :      0.08s CPU      0.11s WALL (       1 calls)

     Called by c_bands:
     init_us_2    :      0.71s CPU      0.76s WALL (     220 calls)
     cegterg      :   1295.57s CPU   1344.75s WALL (      80 calls)

     Called by sum_band:

     Called by *egterg:
     h_psi        :    449.48s CPU    459.96s WALL (    1153 calls)
     s_psi        :     36.48s CPU     36.52s WALL (    1153 calls)
     g_psi        :      0.38s CPU      0.39s WALL (     993 calls)
     cdiaghg      :    579.83s CPU    607.90s WALL (    1073 calls)
     cegterg:over :     98.15s CPU    109.76s WALL (     993 calls)
     cegterg:upda :     95.40s CPU     95.63s WALL (     993 calls)
     cegterg:last :     89.30s CPU     89.46s WALL (     320 calls)
     cdiaghg:chol :     56.00s CPU     56.45s WALL (    1073 calls)
     cdiaghg:inve :     17.98s CPU     18.05s WALL (    1073 calls)
     cdiaghg:para :    154.83s CPU    170.04s WALL (    2146 calls)

     Called by h_psi:
     h_psi:pot    :    448.51s CPU    458.93s WALL (    1153 calls)
     h_psi:calbec :     52.75s CPU     60.41s WALL (    1153 calls)
     vloc_psi     :    358.67s CPU    360.93s WALL (    1153 calls)
     add_vuspsi   :     37.08s CPU     37.57s WALL (    1153 calls)

     General routines
     calbec       :     66.88s CPU     75.62s WALL (    1293 calls)
     fft          :      1.19s CPU      3.97s WALL (      13 calls)
     ffts         :      0.01s CPU      0.01s WALL (       1 calls)
     fftw         :    354.98s CPU    357.23s WALL (  761014 calls)
     interpolate  :      0.02s CPU      0.02s WALL (       1 calls)
 
     Parallel routines
     fft_scatt_xy :      9.51s CPU      9.56s WALL (  761028 calls)
     fft_scatt_yz :    308.40s CPU    313.19s WALL (  761028 calls)
 
     PWSCF        :  31m18.38s CPU  32m55.78s WALL

 
   This run was terminated on:   2:43:39  15Jul2022            

=------------------------------------------------------------------------------=
   JOB DONE.
=------------------------------------------------------------------------------=
