
     Program PWSCF v.6.4.1 starts on 15Jun2022 at 20:48:39 

     This program is part of the open-source Quantum ESPRESSO suite
     for quantum simulation of materials; please cite
         "P. Giannozzi et al., J. Phys.:Condens. Matter 21 395502 (2009);
         "P. Giannozzi et al., J. Phys.:Condens. Matter 29 465901 (2017);
          URL http://www.quantum-espresso.org", 
     in publications or presentations arising from this work. More details at
     http://www.quantum-espresso.org/quote

     Parallel version (MPI), running on    64 processors

     MPI processes distributed on     1 nodes
     K-points division:     npool     =       4
     R & G space division:  proc/nbgrp/npool/nimage =      16
     Waiting for input...
     Reading input from standard input
Warning: card &IONS ignored
Warning: card   UPSCALE           = 100.D0, ignored
Warning: card / ignored
Warning: card &CELL ignored
Warning: card   CELL_DYNAMICS     = 'BFGS' ignored
Warning: card   PRESS_CONV_THR    = 0.5D0 ignored
Warning: card   CELL_DOFREE = 'ALL' ignored
Warning: card / ignored

     Current dimensions of program PWSCF are:
     Max number of different atomic species (ntypx) = 10
     Max number of k-points (npk) =  40000
     Max angular momentum in pseudopotentials (lmaxx) =  3

     Subspace diagonalization in iterative solution of the eigenvalue problem:
     one sub-group per band group will be used
     scalapack distributed-memory algorithm (size of sub-group:  2*  2 procs)

 
     Parallelization info
     --------------------
     sticks:   dense  smooth     PW     G-vecs:    dense   smooth      PW
     Min          97      52     15                 4989     1944     335
     Max          99      53     16                 4996     1949     344
     Sum        1561     847    253                79865    31141    5455
 


     bravais-lattice index     =            0
     lattice parameter (alat)  =       6.1574  a.u.
     unit-cell volume          =     321.8363 (a.u.)^3
     number of atoms/cell      =            4
     number of atomic types    =            2
     number of electrons       =        32.00
     number of Kohn-Sham states=           16
     kinetic-energy cutoff     =      80.0000  Ry
     charge density cutoff     =     600.0000  Ry
     convergence threshold     =      1.0E-06
     mixing beta               =       0.5000
     number of iterations used =            8  plain     mixing
     Exchange-correlation      = SLA  PW   PSX  PSC ( 1  4 10  8 0 0)
     Using LIBXC version       =    4   3   4

     celldm(1)=   6.157436  celldm(2)=   0.000000  celldm(3)=   0.000000
     celldm(4)=   0.000000  celldm(5)=   0.000000  celldm(6)=   0.000000

     crystal axes: (cart. coord. in units of alat)
               a(1) = (   1.000000  -0.000000  -0.000000 )  
               a(2) = (  -0.500000   0.866025   0.000000 )  
               a(3) = (  -0.000000  -0.000000   1.591859 )  

     reciprocal axes: (cart. coord. in units 2 pi/alat)
               b(1) = (  1.000000  0.577350  0.000000 )  
               b(2) = (  0.000000  1.154701  0.000000 )  
               b(3) = (  0.000000  0.000000  0.628196 )  


     PseudoPot. # 1 for Mg read from file:
     ./GBRV_PBEsol/mg_pbesol_v1.4.uspp.F.UPF
     MD5 check sum: 4059f37963cf5867752dbf5ab2400678
     Pseudo is Ultrasoft, Zval = 10.0
     Generated by new atomic code, or converted to UPF format
     Using radial grid of  821 points,  7 beta functions with: 
                l(1) =   0
                l(2) =   0
                l(3) =   0
                l(4) =   1
                l(5) =   1
                l(6) =   2
                l(7) =   2
     Q(r) pseudized with  8 coefficients,  rinner =    1.200   1.200   1.200
                                                       1.200   1.200

     PseudoPot. # 2 for O  read from file:
     ./GBRV_PBEsol/o_pbesol_v1.2.uspp.F.UPF
     MD5 check sum: 501638753501ef6325af9037351f7734
     Pseudo is Ultrasoft + core correction, Zval =  6.0
     Generated by new atomic code, or converted to UPF format
     Using radial grid of  737 points,  5 beta functions with: 
                l(1) =   0
                l(2) =   0
                l(3) =   1
                l(4) =   1
                l(5) =   2
     Q(r) pseudized with  8 coefficients,  rinner =    0.900   0.900   0.900
                                                       0.900   0.900

     atomic species   valence    mass     pseudopotential
        Mg            10.00    24.30500     Mg( 1.00)
        O              6.00    15.99900     O ( 1.00)

     No symmetry found


                                    s                        frac. trans.

      isym =  1     identity                                     

 cryst.   s( 1) = (     1          0          0      )
                  (     0          1          0      )
                  (     0          0          1      )

 cart.    s( 1) = (  1.0000000  0.0000000 -0.0000000 )
                  ( -0.0000000  1.0000000 -0.0000000 )
                  ( -0.0000000 -0.0000000  1.0000000 )


   Cartesian axes

     site n.     atom                  positions (alat units)
         1           O   tau(   1) = (   0.5000001   0.2886754   0.0116935  )
         2           O   tau(   2) = (  -0.0000000   0.5773493   0.8076230  )
         3           Mg  tau(   3) = (   0.4999999   0.2886747   0.6150211  )
         4           Mg  tau(   4) = (  -0.0000003   0.5773510   1.4109506  )

   Crystallographic axes

     site n.     atom                  positions (cryst. coord.)
         1           O   tau(   1) = (  0.6666670  0.3333337  0.0073459  )
         2           O   tau(   2) = (  0.3333329  0.6666657  0.5073458  )
         3           Mg  tau(   3) = (  0.6666664  0.3333329  0.3863540  )
         4           Mg  tau(   4) = (  0.3333337  0.6666677  0.8863539  )

     number of k points=   260
                       cart. coord. in units 2pi/alat
        k(    1) = (   0.0000000   0.0000000   0.0000000), wk =   0.0039062
        k(    2) = (   0.0000000   0.0000000   0.0785245), wk =   0.0078125
        k(    3) = (   0.0000000   0.0000000   0.1570491), wk =   0.0078125
        k(    4) = (   0.0000000   0.0000000   0.2355736), wk =   0.0078125
        k(    5) = (  -0.0000000  -0.0000000  -0.3140981), wk =   0.0039062
        k(    6) = (   0.0000000   0.1443376   0.0000000), wk =   0.0078125
        k(    7) = (   0.0000000   0.1443376   0.0785245), wk =   0.0078125
        k(    8) = (   0.0000000   0.1443376   0.1570491), wk =   0.0078125
        k(    9) = (   0.0000000   0.1443376   0.2355736), wk =   0.0078125
        k(   10) = (  -0.0000000   0.1443376  -0.3140981), wk =   0.0078125
        k(   11) = (  -0.0000000   0.1443376  -0.2355736), wk =   0.0078125
        k(   12) = (  -0.0000000   0.1443376  -0.1570491), wk =   0.0078125
        k(   13) = (  -0.0000000   0.1443376  -0.0785245), wk =   0.0078125
        k(   14) = (   0.0000000   0.2886752   0.0000000), wk =   0.0078125
        k(   15) = (   0.0000000   0.2886752   0.0785245), wk =   0.0078125
        k(   16) = (   0.0000000   0.2886752   0.1570491), wk =   0.0078125
        k(   17) = (   0.0000000   0.2886752   0.2355736), wk =   0.0078125
        k(   18) = (  -0.0000000   0.2886752  -0.3140981), wk =   0.0078125
        k(   19) = (  -0.0000000   0.2886752  -0.2355736), wk =   0.0078125
        k(   20) = (  -0.0000000   0.2886752  -0.1570491), wk =   0.0078125
        k(   21) = (  -0.0000000   0.2886752  -0.0785245), wk =   0.0078125
        k(   22) = (   0.0000000   0.4330128   0.0000000), wk =   0.0078125
        k(   23) = (   0.0000000   0.4330128   0.0785245), wk =   0.0078125
        k(   24) = (   0.0000000   0.4330128   0.1570491), wk =   0.0078125
        k(   25) = (   0.0000000   0.4330128   0.2355736), wk =   0.0078125
        k(   26) = (  -0.0000000   0.4330128  -0.3140981), wk =   0.0078125
        k(   27) = (  -0.0000000   0.4330128  -0.2355736), wk =   0.0078125
        k(   28) = (  -0.0000000   0.4330128  -0.1570491), wk =   0.0078125
        k(   29) = (  -0.0000000   0.4330128  -0.0785245), wk =   0.0078125
        k(   30) = (  -0.0000000  -0.5773503  -0.0000000), wk =   0.0039062
        k(   31) = (   0.0000000  -0.5773503   0.0785245), wk =   0.0078125
        k(   32) = (   0.0000000  -0.5773503   0.1570490), wk =   0.0078125
        k(   33) = (   0.0000000  -0.5773503   0.2355736), wk =   0.0078125
        k(   34) = (  -0.0000000  -0.5773504  -0.3140982), wk =   0.0039062
        k(   35) = (   0.1250000   0.0721688   0.0000000), wk =   0.0078125
        k(   36) = (   0.1250000   0.0721688   0.0785245), wk =   0.0078125
        k(   37) = (   0.1250000   0.0721688   0.1570491), wk =   0.0078125
        k(   38) = (   0.1250000   0.0721688   0.2355736), wk =   0.0078125
        k(   39) = (   0.1250000   0.0721688  -0.3140981), wk =   0.0078125
        k(   40) = (   0.1250000   0.0721688  -0.2355736), wk =   0.0078125
        k(   41) = (   0.1250000   0.0721688  -0.1570491), wk =   0.0078125
        k(   42) = (   0.1250000   0.0721688  -0.0785245), wk =   0.0078125
        k(   43) = (   0.1250000   0.2165064   0.0000000), wk =   0.0078125
        k(   44) = (   0.1250000   0.2165064   0.0785246), wk =   0.0078125
        k(   45) = (   0.1250000   0.2165064   0.1570491), wk =   0.0078125
        k(   46) = (   0.1250000   0.2165064   0.2355736), wk =   0.0078125
        k(   47) = (   0.1250000   0.2165064  -0.3140981), wk =   0.0078125
        k(   48) = (   0.1250000   0.2165064  -0.2355736), wk =   0.0078125
        k(   49) = (   0.1250000   0.2165064  -0.1570490), wk =   0.0078125
        k(   50) = (   0.1250000   0.2165064  -0.0785245), wk =   0.0078125
        k(   51) = (   0.1250000   0.3608440   0.0000000), wk =   0.0078125
        k(   52) = (   0.1250000   0.3608440   0.0785246), wk =   0.0078125
        k(   53) = (   0.1250000   0.3608440   0.1570491), wk =   0.0078125
        k(   54) = (   0.1250000   0.3608440   0.2355736), wk =   0.0078125
        k(   55) = (   0.1250000   0.3608440  -0.3140981), wk =   0.0078125
        k(   56) = (   0.1250000   0.3608440  -0.2355736), wk =   0.0078125
        k(   57) = (   0.1250000   0.3608440  -0.1570490), wk =   0.0078125
        k(   58) = (   0.1250000   0.3608440  -0.0785245), wk =   0.0078125
        k(   59) = (   0.1250000   0.5051816   0.0000000), wk =   0.0078125
        k(   60) = (   0.1250000   0.5051816   0.0785246), wk =   0.0078125
        k(   61) = (   0.1250000   0.5051816   0.1570491), wk =   0.0078125
        k(   62) = (   0.1250000   0.5051816   0.2355736), wk =   0.0078125
        k(   63) = (   0.1250000   0.5051815  -0.3140981), wk =   0.0078125
        k(   64) = (   0.1250000   0.5051815  -0.2355736), wk =   0.0078125
        k(   65) = (   0.1250000   0.5051816  -0.1570490), wk =   0.0078125
        k(   66) = (   0.1250000   0.5051816  -0.0785245), wk =   0.0078125
        k(   67) = (   0.1250000  -0.5051816  -0.0000000), wk =   0.0078125
        k(   68) = (   0.1250000  -0.5051816   0.0785245), wk =   0.0078125
        k(   69) = (   0.1250000  -0.5051815   0.1570491), wk =   0.0078125
        k(   70) = (   0.1250000  -0.5051815   0.2355736), wk =   0.0078125
        k(   71) = (   0.1250000  -0.5051816  -0.3140981), wk =   0.0078125
        k(   72) = (   0.1250000  -0.5051816  -0.2355736), wk =   0.0078125
        k(   73) = (   0.1250000  -0.5051816  -0.1570491), wk =   0.0078125
        k(   74) = (   0.1250000  -0.5051816  -0.0785245), wk =   0.0078125
        k(   75) = (   0.1250000  -0.3608440  -0.0000000), wk =   0.0078125
        k(   76) = (   0.1250000  -0.3608440   0.0785245), wk =   0.0078125
        k(   77) = (   0.1250000  -0.3608440   0.1570491), wk =   0.0078125
        k(   78) = (   0.1250000  -0.3608440   0.2355736), wk =   0.0078125
        k(   79) = (   0.1250000  -0.3608440  -0.3140981), wk =   0.0078125
        k(   80) = (   0.1250000  -0.3608440  -0.2355736), wk =   0.0078125
        k(   81) = (   0.1250000  -0.3608440  -0.1570491), wk =   0.0078125
        k(   82) = (   0.1250000  -0.3608440  -0.0785245), wk =   0.0078125
        k(   83) = (   0.1250000  -0.2165064   0.0000000), wk =   0.0078125
        k(   84) = (   0.1250000  -0.2165064   0.0785245), wk =   0.0078125
        k(   85) = (   0.1250000  -0.2165064   0.1570491), wk =   0.0078125
        k(   86) = (   0.1250000  -0.2165064   0.2355736), wk =   0.0078125
        k(   87) = (   0.1250000  -0.2165064  -0.3140981), wk =   0.0078125
        k(   88) = (   0.1250000  -0.2165064  -0.2355736), wk =   0.0078125
        k(   89) = (   0.1250000  -0.2165064  -0.1570491), wk =   0.0078125
        k(   90) = (   0.1250000  -0.2165064  -0.0785245), wk =   0.0078125
        k(   91) = (   0.1250000  -0.0721688   0.0000000), wk =   0.0078125
        k(   92) = (   0.1250000  -0.0721688   0.0785245), wk =   0.0078125
        k(   93) = (   0.1250000  -0.0721688   0.1570491), wk =   0.0078125
        k(   94) = (   0.1250000  -0.0721688   0.2355736), wk =   0.0078125
        k(   95) = (   0.1250000  -0.0721688  -0.3140981), wk =   0.0078125
        k(   96) = (   0.1250000  -0.0721688  -0.2355736), wk =   0.0078125
        k(   97) = (   0.1250000  -0.0721688  -0.1570491), wk =   0.0078125
        k(   98) = (   0.1250000  -0.0721688  -0.0785245), wk =   0.0078125
        k(   99) = (   0.2500000   0.1443376   0.0000000), wk =   0.0078125
        k(  100) = (   0.2500000   0.1443376   0.0785246), wk =   0.0078125
        k(  101) = (   0.2500000   0.1443376   0.1570491), wk =   0.0078125
        k(  102) = (   0.2500000   0.1443376   0.2355736), wk =   0.0078125
        k(  103) = (   0.2500000   0.1443376  -0.3140981), wk =   0.0078125
        k(  104) = (   0.2500000   0.1443376  -0.2355736), wk =   0.0078125
        k(  105) = (   0.2500000   0.1443376  -0.1570490), wk =   0.0078125
        k(  106) = (   0.2500000   0.1443376  -0.0785245), wk =   0.0078125
        k(  107) = (   0.2500000   0.2886752   0.0000000), wk =   0.0078125
        k(  108) = (   0.2500000   0.2886752   0.0785246), wk =   0.0078125
        k(  109) = (   0.2500000   0.2886752   0.1570491), wk =   0.0078125
        k(  110) = (   0.2500000   0.2886752   0.2355736), wk =   0.0078125
        k(  111) = (   0.2500000   0.2886752  -0.3140981), wk =   0.0078125
        k(  112) = (   0.2500000   0.2886752  -0.2355736), wk =   0.0078125
        k(  113) = (   0.2500000   0.2886752  -0.1570490), wk =   0.0078125
        k(  114) = (   0.2500000   0.2886752  -0.0785245), wk =   0.0078125
        k(  115) = (   0.2500000   0.4330128   0.0000000), wk =   0.0078125
        k(  116) = (   0.2500000   0.4330128   0.0785246), wk =   0.0078125
        k(  117) = (   0.2500000   0.4330128   0.1570491), wk =   0.0078125
        k(  118) = (   0.2500000   0.4330128   0.2355736), wk =   0.0078125
        k(  119) = (   0.2500000   0.4330128  -0.3140981), wk =   0.0078125
        k(  120) = (   0.2500000   0.4330128  -0.2355736), wk =   0.0078125
        k(  121) = (   0.2500000   0.4330128  -0.1570490), wk =   0.0078125
        k(  122) = (   0.2500000   0.4330128  -0.0785245), wk =   0.0078125
        k(  123) = (   0.2500000   0.5773503   0.0000000), wk =   0.0078125
        k(  124) = (   0.2500000   0.5773504   0.0785246), wk =   0.0078125
        k(  125) = (   0.2500000   0.5773504   0.1570491), wk =   0.0078125
        k(  126) = (   0.2500000   0.5773504   0.2355736), wk =   0.0078125
        k(  127) = (   0.2500000   0.5773503  -0.3140981), wk =   0.0078125
        k(  128) = (   0.2500000   0.5773503  -0.2355736), wk =   0.0078125
        k(  129) = (   0.2500000   0.5773503  -0.1570490), wk =   0.0078125
        k(  130) = (   0.2500000   0.5773503  -0.0785245), wk =   0.0078125
        k(  131) = (   0.2500000  -0.4330128   0.0000000), wk =   0.0078125
        k(  132) = (   0.2500000  -0.4330128   0.0785245), wk =   0.0078125
        k(  133) = (   0.2500000  -0.4330128   0.1570491), wk =   0.0078125
        k(  134) = (   0.2500000  -0.4330128   0.2355736), wk =   0.0078125
        k(  135) = (   0.2500000  -0.4330128  -0.3140981), wk =   0.0078125
        k(  136) = (   0.2500000  -0.4330128  -0.2355736), wk =   0.0078125
        k(  137) = (   0.2500000  -0.4330128  -0.1570491), wk =   0.0078125
        k(  138) = (   0.2500000  -0.4330128  -0.0785245), wk =   0.0078125
        k(  139) = (   0.2500000  -0.2886752   0.0000000), wk =   0.0078125
        k(  140) = (   0.2500000  -0.2886752   0.0785245), wk =   0.0078125
        k(  141) = (   0.2500000  -0.2886752   0.1570491), wk =   0.0078125
        k(  142) = (   0.2500000  -0.2886752   0.2355736), wk =   0.0078125
        k(  143) = (   0.2500000  -0.2886752  -0.3140981), wk =   0.0078125
        k(  144) = (   0.2500000  -0.2886752  -0.2355736), wk =   0.0078125
        k(  145) = (   0.2500000  -0.2886752  -0.1570491), wk =   0.0078125
        k(  146) = (   0.2500000  -0.2886752  -0.0785245), wk =   0.0078125
        k(  147) = (   0.2500000  -0.1443376   0.0000000), wk =   0.0078125
        k(  148) = (   0.2500000  -0.1443376   0.0785246), wk =   0.0078125
        k(  149) = (   0.2500000  -0.1443376   0.1570491), wk =   0.0078125
        k(  150) = (   0.2500000  -0.1443376   0.2355736), wk =   0.0078125
        k(  151) = (   0.2500000  -0.1443376  -0.3140981), wk =   0.0078125
        k(  152) = (   0.2500000  -0.1443376  -0.2355736), wk =   0.0078125
        k(  153) = (   0.2500000  -0.1443376  -0.1570490), wk =   0.0078125
        k(  154) = (   0.2500000  -0.1443376  -0.0785245), wk =   0.0078125
        k(  155) = (   0.2500000   0.0000000   0.0000000), wk =   0.0078125
        k(  156) = (   0.2500000   0.0000000   0.0785246), wk =   0.0078125
        k(  157) = (   0.2500000   0.0000000   0.1570491), wk =   0.0078125
        k(  158) = (   0.2500000   0.0000000   0.2355736), wk =   0.0078125
        k(  159) = (   0.2500000  -0.0000000  -0.3140981), wk =   0.0078125
        k(  160) = (   0.2500000  -0.0000000  -0.2355736), wk =   0.0078125
        k(  161) = (   0.2500000  -0.0000000  -0.1570490), wk =   0.0078125
        k(  162) = (   0.2500000   0.0000000  -0.0785245), wk =   0.0078125
        k(  163) = (   0.3750000   0.2165064   0.0000000), wk =   0.0078125
        k(  164) = (   0.3750000   0.2165064   0.0785246), wk =   0.0078125
        k(  165) = (   0.3750000   0.2165064   0.1570491), wk =   0.0078125
        k(  166) = (   0.3750000   0.2165064   0.2355736), wk =   0.0078125
        k(  167) = (   0.3750000   0.2165064  -0.3140981), wk =   0.0078125
        k(  168) = (   0.3750000   0.2165064  -0.2355736), wk =   0.0078125
        k(  169) = (   0.3750000   0.2165064  -0.1570490), wk =   0.0078125
        k(  170) = (   0.3750000   0.2165064  -0.0785245), wk =   0.0078125
        k(  171) = (   0.3750000   0.3608440   0.0000000), wk =   0.0078125
        k(  172) = (   0.3750000   0.3608440   0.0785246), wk =   0.0078125
        k(  173) = (   0.3750000   0.3608440   0.1570491), wk =   0.0078125
        k(  174) = (   0.3750000   0.3608440   0.2355736), wk =   0.0078125
        k(  175) = (   0.3750000   0.3608440  -0.3140981), wk =   0.0078125
        k(  176) = (   0.3750000   0.3608440  -0.2355736), wk =   0.0078125
        k(  177) = (   0.3750000   0.3608440  -0.1570490), wk =   0.0078125
        k(  178) = (   0.3750000   0.3608440  -0.0785245), wk =   0.0078125
        k(  179) = (   0.3750000   0.5051816   0.0000001), wk =   0.0078125
        k(  180) = (   0.3750000   0.5051816   0.0785246), wk =   0.0078125
        k(  181) = (   0.3750000   0.5051816   0.1570491), wk =   0.0078125
        k(  182) = (   0.3750000   0.5051816   0.2355737), wk =   0.0078125
        k(  183) = (   0.3750000   0.5051815  -0.3140981), wk =   0.0078125
        k(  184) = (   0.3750000   0.5051816  -0.2355735), wk =   0.0078125
        k(  185) = (   0.3750000   0.5051816  -0.1570490), wk =   0.0078125
        k(  186) = (   0.3750000   0.5051816  -0.0785245), wk =   0.0078125
        k(  187) = (   0.3750000   0.6495191   0.0000001), wk =   0.0078125
        k(  188) = (   0.3750000   0.6495191   0.0785246), wk =   0.0078125
        k(  189) = (   0.3750000   0.6495191   0.1570491), wk =   0.0078125
        k(  190) = (   0.3750000   0.6495192   0.2355737), wk =   0.0078125
        k(  191) = (   0.3750000   0.6495191  -0.3140981), wk =   0.0078125
        k(  192) = (   0.3750000   0.6495191  -0.2355735), wk =   0.0078125
        k(  193) = (   0.3750000   0.6495191  -0.1570490), wk =   0.0078125
        k(  194) = (   0.3750000   0.6495191  -0.0785245), wk =   0.0078125
        k(  195) = (   0.3750000  -0.3608440   0.0000000), wk =   0.0078125
        k(  196) = (   0.3750000  -0.3608440   0.0785246), wk =   0.0078125
        k(  197) = (   0.3750000  -0.3608440   0.1570491), wk =   0.0078125
        k(  198) = (   0.3750000  -0.3608440   0.2355736), wk =   0.0078125
        k(  199) = (   0.3750000  -0.3608440  -0.3140981), wk =   0.0078125
        k(  200) = (   0.3750000  -0.3608440  -0.2355736), wk =   0.0078125
        k(  201) = (   0.3750000  -0.3608440  -0.1570490), wk =   0.0078125
        k(  202) = (   0.3750000  -0.3608440  -0.0785245), wk =   0.0078125
        k(  203) = (   0.3750000  -0.2165064   0.0000000), wk =   0.0078125
        k(  204) = (   0.3750000  -0.2165064   0.0785246), wk =   0.0078125
        k(  205) = (   0.3750000  -0.2165064   0.1570491), wk =   0.0078125
        k(  206) = (   0.3750000  -0.2165064   0.2355736), wk =   0.0078125
        k(  207) = (   0.3750000  -0.2165064  -0.3140981), wk =   0.0078125
        k(  208) = (   0.3750000  -0.2165064  -0.2355736), wk =   0.0078125
        k(  209) = (   0.3750000  -0.2165064  -0.1570490), wk =   0.0078125
        k(  210) = (   0.3750000  -0.2165064  -0.0785245), wk =   0.0078125
        k(  211) = (   0.3750000  -0.0721688   0.0000000), wk =   0.0078125
        k(  212) = (   0.3750000  -0.0721688   0.0785246), wk =   0.0078125
        k(  213) = (   0.3750000  -0.0721688   0.1570491), wk =   0.0078125
        k(  214) = (   0.3750000  -0.0721688   0.2355736), wk =   0.0078125
        k(  215) = (   0.3750000  -0.0721688  -0.3140981), wk =   0.0078125
        k(  216) = (   0.3750000  -0.0721688  -0.2355736), wk =   0.0078125
        k(  217) = (   0.3750000  -0.0721688  -0.1570490), wk =   0.0078125
        k(  218) = (   0.3750000  -0.0721688  -0.0785245), wk =   0.0078125
        k(  219) = (   0.3750000   0.0721688   0.0000000), wk =   0.0078125
        k(  220) = (   0.3750000   0.0721688   0.0785246), wk =   0.0078125
        k(  221) = (   0.3750000   0.0721688   0.1570491), wk =   0.0078125
        k(  222) = (   0.3750000   0.0721688   0.2355736), wk =   0.0078125
        k(  223) = (   0.3750000   0.0721688  -0.3140981), wk =   0.0078125
        k(  224) = (   0.3750000   0.0721688  -0.2355736), wk =   0.0078125
        k(  225) = (   0.3750000   0.0721688  -0.1570490), wk =   0.0078125
        k(  226) = (   0.3750000   0.0721688  -0.0785245), wk =   0.0078125
        k(  227) = (  -0.5000000  -0.2886752  -0.0000001), wk =   0.0039062
        k(  228) = (  -0.5000000  -0.2886752   0.0785245), wk =   0.0078125
        k(  229) = (  -0.5000000  -0.2886752   0.1570490), wk =   0.0078125
        k(  230) = (  -0.5000000  -0.2886752   0.2355735), wk =   0.0078125
        k(  231) = (  -0.5000000  -0.2886752  -0.3140982), wk =   0.0039062
        k(  232) = (  -0.5000000  -0.1443376  -0.0000000), wk =   0.0078125
        k(  233) = (  -0.5000000  -0.1443376   0.0785245), wk =   0.0078125
        k(  234) = (  -0.5000000  -0.1443376   0.1570490), wk =   0.0078125
        k(  235) = (  -0.5000000  -0.1443376   0.2355736), wk =   0.0078125
        k(  236) = (  -0.5000000  -0.1443376  -0.3140982), wk =   0.0078125
        k(  237) = (  -0.5000000  -0.1443376  -0.2355736), wk =   0.0078125
        k(  238) = (  -0.5000000  -0.1443376  -0.1570491), wk =   0.0078125
        k(  239) = (  -0.5000000  -0.1443376  -0.0785246), wk =   0.0078125
        k(  240) = (  -0.5000000  -0.0000000  -0.0000000), wk =   0.0078125
        k(  241) = (  -0.5000000  -0.0000000   0.0785245), wk =   0.0078125
        k(  242) = (  -0.5000000  -0.0000000   0.1570490), wk =   0.0078125
        k(  243) = (  -0.5000000   0.0000000   0.2355736), wk =   0.0078125
        k(  244) = (  -0.5000000  -0.0000000  -0.3140982), wk =   0.0078125
        k(  245) = (  -0.5000000  -0.0000000  -0.2355736), wk =   0.0078125
        k(  246) = (  -0.5000000  -0.0000000  -0.1570491), wk =   0.0078125
        k(  247) = (  -0.5000000  -0.0000000  -0.0785246), wk =   0.0078125
        k(  248) = (  -0.5000000   0.1443376  -0.0000000), wk =   0.0078125
        k(  249) = (  -0.5000000   0.1443376   0.0785245), wk =   0.0078125
        k(  250) = (  -0.5000000   0.1443376   0.1570490), wk =   0.0078125
        k(  251) = (  -0.5000000   0.1443376   0.2355736), wk =   0.0078125
        k(  252) = (  -0.5000000   0.1443376  -0.3140982), wk =   0.0078125
        k(  253) = (  -0.5000000   0.1443376  -0.2355736), wk =   0.0078125
        k(  254) = (  -0.5000000   0.1443376  -0.1570491), wk =   0.0078125
        k(  255) = (  -0.5000000   0.1443376  -0.0785246), wk =   0.0078125
        k(  256) = (  -0.5000000  -0.8660255  -0.0000001), wk =   0.0039062
        k(  257) = (  -0.5000000  -0.8660255   0.0785245), wk =   0.0078125
        k(  258) = (  -0.5000000  -0.8660255   0.1570490), wk =   0.0078125
        k(  259) = (  -0.5000000  -0.8660255   0.2355735), wk =   0.0078125
        k(  260) = (  -0.5000000  -0.8660255  -0.3140982), wk =   0.0039062

                       cryst. coord.
        k(    1) = (   0.0000000   0.0000000   0.0000000), wk =   0.0039062
        k(    2) = (   0.0000000  -0.0000000   0.1250000), wk =   0.0078125
        k(    3) = (   0.0000000  -0.0000000   0.2500000), wk =   0.0078125
        k(    4) = (   0.0000000  -0.0000000   0.3750000), wk =   0.0078125
        k(    5) = (  -0.0000000   0.0000000  -0.5000000), wk =   0.0039062
        k(    6) = (   0.0000000   0.1250000  -0.0000000), wk =   0.0078125
        k(    7) = (   0.0000000   0.1250000   0.1250000), wk =   0.0078125
        k(    8) = (   0.0000000   0.1250000   0.2500000), wk =   0.0078125
        k(    9) = (   0.0000000   0.1250000   0.3750000), wk =   0.0078125
        k(   10) = (  -0.0000000   0.1250000  -0.5000000), wk =   0.0078125
        k(   11) = (  -0.0000000   0.1250000  -0.3750000), wk =   0.0078125
        k(   12) = (  -0.0000000   0.1250000  -0.2500000), wk =   0.0078125
        k(   13) = (  -0.0000000   0.1250000  -0.1250000), wk =   0.0078125
        k(   14) = (   0.0000000   0.2500000  -0.0000000), wk =   0.0078125
        k(   15) = (   0.0000000   0.2500000   0.1250000), wk =   0.0078125
        k(   16) = (   0.0000000   0.2500000   0.2500000), wk =   0.0078125
        k(   17) = (   0.0000000   0.2500000   0.3750000), wk =   0.0078125
        k(   18) = (  -0.0000000   0.2500000  -0.5000000), wk =   0.0078125
        k(   19) = (  -0.0000000   0.2500000  -0.3750000), wk =   0.0078125
        k(   20) = (  -0.0000000   0.2500000  -0.2500000), wk =   0.0078125
        k(   21) = (  -0.0000000   0.2500000  -0.1250000), wk =   0.0078125
        k(   22) = (  -0.0000000   0.3750000  -0.0000000), wk =   0.0078125
        k(   23) = (   0.0000000   0.3750000   0.1250000), wk =   0.0078125
        k(   24) = (  -0.0000000   0.3750000   0.2500000), wk =   0.0078125
        k(   25) = (  -0.0000000   0.3750000   0.3750000), wk =   0.0078125
        k(   26) = (  -0.0000000   0.3750000  -0.5000000), wk =   0.0078125
        k(   27) = (  -0.0000000   0.3750000  -0.3750000), wk =   0.0078125
        k(   28) = (  -0.0000000   0.3750000  -0.2500000), wk =   0.0078125
        k(   29) = (  -0.0000000   0.3750000  -0.1250000), wk =   0.0078125
        k(   30) = (  -0.0000000  -0.5000000   0.0000000), wk =   0.0039062
        k(   31) = (   0.0000000  -0.5000000   0.1250000), wk =   0.0078125
        k(   32) = (   0.0000000  -0.5000000   0.2500000), wk =   0.0078125
        k(   33) = (   0.0000000  -0.5000000   0.3750000), wk =   0.0078125
        k(   34) = (  -0.0000000  -0.5000000  -0.5000000), wk =   0.0039062
        k(   35) = (   0.1250000   0.0000000  -0.0000000), wk =   0.0078125
        k(   36) = (   0.1250000   0.0000000   0.1250000), wk =   0.0078125
        k(   37) = (   0.1250000  -0.0000000   0.2500000), wk =   0.0078125
        k(   38) = (   0.1250000  -0.0000000   0.3750000), wk =   0.0078125
        k(   39) = (   0.1250000  -0.0000000  -0.5000000), wk =   0.0078125
        k(   40) = (   0.1250000  -0.0000000  -0.3750000), wk =   0.0078125
        k(   41) = (   0.1250000  -0.0000000  -0.2500000), wk =   0.0078125
        k(   42) = (   0.1250000  -0.0000000  -0.1250000), wk =   0.0078125
        k(   43) = (   0.1250000   0.1250000  -0.0000000), wk =   0.0078125
        k(   44) = (   0.1250000   0.1250000   0.1250000), wk =   0.0078125
        k(   45) = (   0.1250000   0.1250000   0.2500000), wk =   0.0078125
        k(   46) = (   0.1250000   0.1250000   0.3750000), wk =   0.0078125
        k(   47) = (   0.1250000   0.1250000  -0.5000000), wk =   0.0078125
        k(   48) = (   0.1250000   0.1250000  -0.3750000), wk =   0.0078125
        k(   49) = (   0.1250000   0.1250000  -0.2500000), wk =   0.0078125
        k(   50) = (   0.1250000   0.1250000  -0.1250000), wk =   0.0078125
        k(   51) = (   0.1250000   0.2500000  -0.0000000), wk =   0.0078125
        k(   52) = (   0.1250000   0.2500000   0.1250000), wk =   0.0078125
        k(   53) = (   0.1250000   0.2500000   0.2500000), wk =   0.0078125
        k(   54) = (   0.1250000   0.2500000   0.3750000), wk =   0.0078125
        k(   55) = (   0.1250000   0.2500000  -0.5000000), wk =   0.0078125
        k(   56) = (   0.1250000   0.2500000  -0.3750000), wk =   0.0078125
        k(   57) = (   0.1250000   0.2500000  -0.2500000), wk =   0.0078125
        k(   58) = (   0.1250000   0.2500000  -0.1250000), wk =   0.0078125
        k(   59) = (   0.1250000   0.3750000  -0.0000000), wk =   0.0078125
        k(   60) = (   0.1250000   0.3750000   0.1250000), wk =   0.0078125
        k(   61) = (   0.1250000   0.3750000   0.2500000), wk =   0.0078125
        k(   62) = (   0.1250000   0.3750000   0.3750000), wk =   0.0078125
        k(   63) = (   0.1250000   0.3750000  -0.5000000), wk =   0.0078125
        k(   64) = (   0.1250000   0.3750000  -0.3750000), wk =   0.0078125
        k(   65) = (   0.1250000   0.3750000  -0.2500000), wk =   0.0078125
        k(   66) = (   0.1250000   0.3750000  -0.1250000), wk =   0.0078125
        k(   67) = (   0.1250000  -0.5000000   0.0000000), wk =   0.0078125
        k(   68) = (   0.1250000  -0.5000000   0.1250000), wk =   0.0078125
        k(   69) = (   0.1250000  -0.5000000   0.2500000), wk =   0.0078125
        k(   70) = (   0.1250000  -0.5000000   0.3750000), wk =   0.0078125
        k(   71) = (   0.1250000  -0.5000000  -0.5000000), wk =   0.0078125
        k(   72) = (   0.1250000  -0.5000000  -0.3750000), wk =   0.0078125
        k(   73) = (   0.1250000  -0.5000000  -0.2500000), wk =   0.0078125
        k(   74) = (   0.1250000  -0.5000000  -0.1250000), wk =   0.0078125
        k(   75) = (   0.1250000  -0.3750000   0.0000000), wk =   0.0078125
        k(   76) = (   0.1250000  -0.3750000   0.1250000), wk =   0.0078125
        k(   77) = (   0.1250000  -0.3750000   0.2500000), wk =   0.0078125
        k(   78) = (   0.1250000  -0.3750000   0.3750000), wk =   0.0078125
        k(   79) = (   0.1250000  -0.3750000  -0.5000000), wk =   0.0078125
        k(   80) = (   0.1250000  -0.3750000  -0.3750000), wk =   0.0078125
        k(   81) = (   0.1250000  -0.3750000  -0.2500000), wk =   0.0078125
        k(   82) = (   0.1250000  -0.3750000  -0.1250000), wk =   0.0078125
        k(   83) = (   0.1250000  -0.2500000  -0.0000000), wk =   0.0078125
        k(   84) = (   0.1250000  -0.2500000   0.1250000), wk =   0.0078125
        k(   85) = (   0.1250000  -0.2500000   0.2500000), wk =   0.0078125
        k(   86) = (   0.1250000  -0.2500000   0.3750000), wk =   0.0078125
        k(   87) = (   0.1250000  -0.2500000  -0.5000000), wk =   0.0078125
        k(   88) = (   0.1250000  -0.2500000  -0.3750000), wk =   0.0078125
        k(   89) = (   0.1250000  -0.2500000  -0.2500000), wk =   0.0078125
        k(   90) = (   0.1250000  -0.2500000  -0.1250000), wk =   0.0078125
        k(   91) = (   0.1250000  -0.1250000   0.0000000), wk =   0.0078125
        k(   92) = (   0.1250000  -0.1250000   0.1250000), wk =   0.0078125
        k(   93) = (   0.1250000  -0.1250000   0.2500000), wk =   0.0078125
        k(   94) = (   0.1250000  -0.1250000   0.3750000), wk =   0.0078125
        k(   95) = (   0.1250000  -0.1250000  -0.5000000), wk =   0.0078125
        k(   96) = (   0.1250000  -0.1250000  -0.3750000), wk =   0.0078125
        k(   97) = (   0.1250000  -0.1250000  -0.2500000), wk =   0.0078125
        k(   98) = (   0.1250000  -0.1250000  -0.1250000), wk =   0.0078125
        k(   99) = (   0.2500000   0.0000000  -0.0000000), wk =   0.0078125
        k(  100) = (   0.2500000   0.0000000   0.1250000), wk =   0.0078125
        k(  101) = (   0.2500000   0.0000000   0.2500000), wk =   0.0078125
        k(  102) = (   0.2500000   0.0000000   0.3750000), wk =   0.0078125
        k(  103) = (   0.2500000  -0.0000000  -0.5000000), wk =   0.0078125
        k(  104) = (   0.2500000   0.0000000  -0.3750000), wk =   0.0078125
        k(  105) = (   0.2500000  -0.0000000  -0.2500000), wk =   0.0078125
        k(  106) = (   0.2500000  -0.0000000  -0.1250000), wk =   0.0078125
        k(  107) = (   0.2500000   0.1250000  -0.0000000), wk =   0.0078125
        k(  108) = (   0.2500000   0.1250000   0.1250000), wk =   0.0078125
        k(  109) = (   0.2500000   0.1250000   0.2500000), wk =   0.0078125
        k(  110) = (   0.2500000   0.1250000   0.3750000), wk =   0.0078125
        k(  111) = (   0.2500000   0.1250000  -0.5000000), wk =   0.0078125
        k(  112) = (   0.2500000   0.1250000  -0.3750000), wk =   0.0078125
        k(  113) = (   0.2500000   0.1250000  -0.2500000), wk =   0.0078125
        k(  114) = (   0.2500000   0.1250000  -0.1250000), wk =   0.0078125
        k(  115) = (   0.2500000   0.2500000  -0.0000000), wk =   0.0078125
        k(  116) = (   0.2500000   0.2500000   0.1250000), wk =   0.0078125
        k(  117) = (   0.2500000   0.2500000   0.2500000), wk =   0.0078125
        k(  118) = (   0.2500000   0.2500000   0.3750000), wk =   0.0078125
        k(  119) = (   0.2500000   0.2500000  -0.5000000), wk =   0.0078125
        k(  120) = (   0.2500000   0.2500000  -0.3750000), wk =   0.0078125
        k(  121) = (   0.2500000   0.2500000  -0.2500000), wk =   0.0078125
        k(  122) = (   0.2500000   0.2500000  -0.1250000), wk =   0.0078125
        k(  123) = (   0.2500000   0.3750000  -0.0000000), wk =   0.0078125
        k(  124) = (   0.2500000   0.3750000   0.1250000), wk =   0.0078125
        k(  125) = (   0.2500000   0.3750000   0.2500000), wk =   0.0078125
        k(  126) = (   0.2500000   0.3750000   0.3750000), wk =   0.0078125
        k(  127) = (   0.2500000   0.3750000  -0.5000000), wk =   0.0078125
        k(  128) = (   0.2500000   0.3750000  -0.3750000), wk =   0.0078125
        k(  129) = (   0.2500000   0.3750000  -0.2500000), wk =   0.0078125
        k(  130) = (   0.2500000   0.3750000  -0.1250000), wk =   0.0078125
        k(  131) = (   0.2500000  -0.5000000  -0.0000000), wk =   0.0078125
        k(  132) = (   0.2500000  -0.5000000   0.1250000), wk =   0.0078125
        k(  133) = (   0.2500000  -0.5000000   0.2500000), wk =   0.0078125
        k(  134) = (   0.2500000  -0.5000000   0.3750000), wk =   0.0078125
        k(  135) = (   0.2500000  -0.5000000  -0.5000000), wk =   0.0078125
        k(  136) = (   0.2500000  -0.5000000  -0.3750000), wk =   0.0078125
        k(  137) = (   0.2500000  -0.5000000  -0.2500000), wk =   0.0078125
        k(  138) = (   0.2500000  -0.5000000  -0.1250000), wk =   0.0078125
        k(  139) = (   0.2500000  -0.3750000  -0.0000000), wk =   0.0078125
        k(  140) = (   0.2500000  -0.3750000   0.1250000), wk =   0.0078125
        k(  141) = (   0.2500000  -0.3750000   0.2500000), wk =   0.0078125
        k(  142) = (   0.2500000  -0.3750000   0.3750000), wk =   0.0078125
        k(  143) = (   0.2500000  -0.3750000  -0.5000000), wk =   0.0078125
        k(  144) = (   0.2500000  -0.3750000  -0.3750000), wk =   0.0078125
        k(  145) = (   0.2500000  -0.3750000  -0.2500000), wk =   0.0078125
        k(  146) = (   0.2500000  -0.3750000  -0.1250000), wk =   0.0078125
        k(  147) = (   0.2500000  -0.2500000   0.0000000), wk =   0.0078125
        k(  148) = (   0.2500000  -0.2500000   0.1250000), wk =   0.0078125
        k(  149) = (   0.2500000  -0.2500000   0.2500000), wk =   0.0078125
        k(  150) = (   0.2500000  -0.2500000   0.3750000), wk =   0.0078125
        k(  151) = (   0.2500000  -0.2500000  -0.5000000), wk =   0.0078125
        k(  152) = (   0.2500000  -0.2500000  -0.3750000), wk =   0.0078125
        k(  153) = (   0.2500000  -0.2500000  -0.2500000), wk =   0.0078125
        k(  154) = (   0.2500000  -0.2500000  -0.1250000), wk =   0.0078125
        k(  155) = (   0.2500000  -0.1250000  -0.0000000), wk =   0.0078125
        k(  156) = (   0.2500000  -0.1250000   0.1250000), wk =   0.0078125
        k(  157) = (   0.2500000  -0.1250000   0.2500000), wk =   0.0078125
        k(  158) = (   0.2500000  -0.1250000   0.3750000), wk =   0.0078125
        k(  159) = (   0.2500000  -0.1250000  -0.5000000), wk =   0.0078125
        k(  160) = (   0.2500000  -0.1250000  -0.3750000), wk =   0.0078125
        k(  161) = (   0.2500000  -0.1250000  -0.2500000), wk =   0.0078125
        k(  162) = (   0.2500000  -0.1250000  -0.1250000), wk =   0.0078125
        k(  163) = (   0.3750000  -0.0000000  -0.0000000), wk =   0.0078125
        k(  164) = (   0.3750000  -0.0000000   0.1250000), wk =   0.0078125
        k(  165) = (   0.3750000  -0.0000000   0.2500000), wk =   0.0078125
        k(  166) = (   0.3750000  -0.0000000   0.3750000), wk =   0.0078125
        k(  167) = (   0.3750000  -0.0000000  -0.5000000), wk =   0.0078125
        k(  168) = (   0.3750000  -0.0000000  -0.3750000), wk =   0.0078125
        k(  169) = (   0.3750000  -0.0000000  -0.2500000), wk =   0.0078125
        k(  170) = (   0.3750000  -0.0000000  -0.1250000), wk =   0.0078125
        k(  171) = (   0.3750000   0.1250000  -0.0000000), wk =   0.0078125
        k(  172) = (   0.3750000   0.1250000   0.1250000), wk =   0.0078125
        k(  173) = (   0.3750000   0.1250000   0.2500000), wk =   0.0078125
        k(  174) = (   0.3750000   0.1250000   0.3750000), wk =   0.0078125
        k(  175) = (   0.3750000   0.1250000  -0.5000000), wk =   0.0078125
        k(  176) = (   0.3750000   0.1250000  -0.3750000), wk =   0.0078125
        k(  177) = (   0.3750000   0.1250000  -0.2500000), wk =   0.0078125
        k(  178) = (   0.3750000   0.1250000  -0.1250000), wk =   0.0078125
        k(  179) = (   0.3750000   0.2500000   0.0000000), wk =   0.0078125
        k(  180) = (   0.3750000   0.2500000   0.1250000), wk =   0.0078125
        k(  181) = (   0.3750000   0.2500000   0.2500000), wk =   0.0078125
        k(  182) = (   0.3750000   0.2500000   0.3750000), wk =   0.0078125
        k(  183) = (   0.3750000   0.2500000  -0.5000000), wk =   0.0078125
        k(  184) = (   0.3750000   0.2500000  -0.3750000), wk =   0.0078125
        k(  185) = (   0.3750000   0.2500000  -0.2500000), wk =   0.0078125
        k(  186) = (   0.3750000   0.2500000  -0.1250000), wk =   0.0078125
        k(  187) = (   0.3750000   0.3750000  -0.0000000), wk =   0.0078125
        k(  188) = (   0.3750000   0.3750000   0.1250000), wk =   0.0078125
        k(  189) = (   0.3750000   0.3750000   0.2500000), wk =   0.0078125
        k(  190) = (   0.3750000   0.3750000   0.3750000), wk =   0.0078125
        k(  191) = (   0.3750000   0.3750000  -0.5000000), wk =   0.0078125
        k(  192) = (   0.3750000   0.3750000  -0.3750000), wk =   0.0078125
        k(  193) = (   0.3750000   0.3750000  -0.2500000), wk =   0.0078125
        k(  194) = (   0.3750000   0.3750000  -0.1250000), wk =   0.0078125
        k(  195) = (   0.3750000  -0.5000000  -0.0000000), wk =   0.0078125
        k(  196) = (   0.3750000  -0.5000000   0.1250000), wk =   0.0078125
        k(  197) = (   0.3750000  -0.5000000   0.2500000), wk =   0.0078125
        k(  198) = (   0.3750000  -0.5000000   0.3750000), wk =   0.0078125
        k(  199) = (   0.3750000  -0.5000000  -0.5000000), wk =   0.0078125
        k(  200) = (   0.3750000  -0.5000000  -0.3750000), wk =   0.0078125
        k(  201) = (   0.3750000  -0.5000000  -0.2500000), wk =   0.0078125
        k(  202) = (   0.3750000  -0.5000000  -0.1250000), wk =   0.0078125
        k(  203) = (   0.3750000  -0.3750000  -0.0000000), wk =   0.0078125
        k(  204) = (   0.3750000  -0.3750000   0.1250000), wk =   0.0078125
        k(  205) = (   0.3750000  -0.3750000   0.2500000), wk =   0.0078125
        k(  206) = (   0.3750000  -0.3750000   0.3750000), wk =   0.0078125
        k(  207) = (   0.3750000  -0.3750000  -0.5000000), wk =   0.0078125
        k(  208) = (   0.3750000  -0.3750000  -0.3750000), wk =   0.0078125
        k(  209) = (   0.3750000  -0.3750000  -0.2500000), wk =   0.0078125
        k(  210) = (   0.3750000  -0.3750000  -0.1250000), wk =   0.0078125
        k(  211) = (   0.3750000  -0.2500000  -0.0000000), wk =   0.0078125
        k(  212) = (   0.3750000  -0.2500000   0.1250000), wk =   0.0078125
        k(  213) = (   0.3750000  -0.2500000   0.2500000), wk =   0.0078125
        k(  214) = (   0.3750000  -0.2500000   0.3750000), wk =   0.0078125
        k(  215) = (   0.3750000  -0.2500000  -0.5000000), wk =   0.0078125
        k(  216) = (   0.3750000  -0.2500000  -0.3750000), wk =   0.0078125
        k(  217) = (   0.3750000  -0.2500000  -0.2500000), wk =   0.0078125
        k(  218) = (   0.3750000  -0.2500000  -0.1250000), wk =   0.0078125
        k(  219) = (   0.3750000  -0.1250000  -0.0000000), wk =   0.0078125
        k(  220) = (   0.3750000  -0.1250000   0.1250000), wk =   0.0078125
        k(  221) = (   0.3750000  -0.1250000   0.2500000), wk =   0.0078125
        k(  222) = (   0.3750000  -0.1250000   0.3750000), wk =   0.0078125
        k(  223) = (   0.3750000  -0.1250000  -0.5000000), wk =   0.0078125
        k(  224) = (   0.3750000  -0.1250000  -0.3750000), wk =   0.0078125
        k(  225) = (   0.3750000  -0.1250000  -0.2500000), wk =   0.0078125
        k(  226) = (   0.3750000  -0.1250000  -0.1250000), wk =   0.0078125
        k(  227) = (  -0.5000000  -0.0000000   0.0000000), wk =   0.0039062
        k(  228) = (  -0.5000000  -0.0000000   0.1250000), wk =   0.0078125
        k(  229) = (  -0.5000000   0.0000000   0.2500000), wk =   0.0078125
        k(  230) = (  -0.5000000  -0.0000000   0.3750000), wk =   0.0078125
        k(  231) = (  -0.5000000  -0.0000000  -0.5000000), wk =   0.0039062
        k(  232) = (  -0.5000000   0.1250000   0.0000000), wk =   0.0078125
        k(  233) = (  -0.5000000   0.1250000   0.1250000), wk =   0.0078125
        k(  234) = (  -0.5000000   0.1250000   0.2500000), wk =   0.0078125
        k(  235) = (  -0.5000000   0.1250000   0.3750000), wk =   0.0078125
        k(  236) = (  -0.5000000   0.1250000  -0.5000000), wk =   0.0078125
        k(  237) = (  -0.5000000   0.1250000  -0.3750000), wk =   0.0078125
        k(  238) = (  -0.5000000   0.1250000  -0.2500000), wk =   0.0078125
        k(  239) = (  -0.5000000   0.1250000  -0.1250000), wk =   0.0078125
        k(  240) = (  -0.5000000   0.2500000   0.0000000), wk =   0.0078125
        k(  241) = (  -0.5000000   0.2500000   0.1250000), wk =   0.0078125
        k(  242) = (  -0.5000000   0.2500000   0.2500000), wk =   0.0078125
        k(  243) = (  -0.5000000   0.2500000   0.3750000), wk =   0.0078125
        k(  244) = (  -0.5000000   0.2500000  -0.5000000), wk =   0.0078125
        k(  245) = (  -0.5000000   0.2500000  -0.3750000), wk =   0.0078125
        k(  246) = (  -0.5000000   0.2500000  -0.2500000), wk =   0.0078125
        k(  247) = (  -0.5000000   0.2500000  -0.1250000), wk =   0.0078125
        k(  248) = (  -0.5000000   0.3750000  -0.0000000), wk =   0.0078125
        k(  249) = (  -0.5000000   0.3750000   0.1250000), wk =   0.0078125
        k(  250) = (  -0.5000000   0.3750000   0.2500000), wk =   0.0078125
        k(  251) = (  -0.5000000   0.3750000   0.3750000), wk =   0.0078125
        k(  252) = (  -0.5000000   0.3750000  -0.5000000), wk =   0.0078125
        k(  253) = (  -0.5000000   0.3750000  -0.3750000), wk =   0.0078125
        k(  254) = (  -0.5000000   0.3750000  -0.2500000), wk =   0.0078125
        k(  255) = (  -0.5000000   0.3750000  -0.1250000), wk =   0.0078125
        k(  256) = (  -0.5000000  -0.5000000   0.0000000), wk =   0.0039062
        k(  257) = (  -0.5000000  -0.5000000   0.1250000), wk =   0.0078125
        k(  258) = (  -0.5000000  -0.5000000   0.2500000), wk =   0.0078125
        k(  259) = (  -0.5000000  -0.5000000   0.3750000), wk =   0.0078125
        k(  260) = (  -0.5000000  -0.5000000  -0.5000000), wk =   0.0039062

     Dense  grid:    79865 G-vectors     FFT dimensions: (  50,  50,  80)

     Smooth grid:    31141 G-vectors     FFT dimensions: (  36,  36,  60)

     Dynamical RAM for                 wfc:       0.06 MB

     Dynamical RAM for     wfc (w. buffer):       3.92 MB

     Dynamical RAM for           str. fact:       0.15 MB

     Dynamical RAM for           local pot:       0.00 MB

     Dynamical RAM for          nlocal pot:       0.24 MB

     Dynamical RAM for                qrad:       5.14 MB

     Dynamical RAM for          rho,v,vnew:       0.51 MB

     Dynamical RAM for               rhoin:       0.17 MB

     Dynamical RAM for            rho*nmix:       1.22 MB

     Dynamical RAM for           G-vectors:       0.30 MB

     Dynamical RAM for          h,s,v(r/c):       0.05 MB

     Dynamical RAM for          <psi|beta>:       0.02 MB

     Dynamical RAM for                 psi:       0.24 MB

     Dynamical RAM for                hpsi:       0.24 MB

     Dynamical RAM for                spsi:       0.24 MB

     Dynamical RAM for      wfcinit/wfcrot:       0.14 MB

     Dynamical RAM for           addusdens:       4.00 MB

     Dynamical RAM for          addusforce:       4.15 MB

     Dynamical RAM for         addusstress:       4.21 MB

     Estimated static dynamical RAM per process >      12.35 MB

     Estimated max dynamical RAM per process >      16.57 MB

     Estimated total dynamical RAM >       1.04 GB

     Check: negative core charge=   -0.000003

     Initial potential from superposition of free atoms

     starting charge   31.39954, renormalised to   32.00000
     Starting wfcs are   18 randomized atomic wfcs

     total cpu time spent up to now is        0.9 secs

     Self-consistent Calculation

     iteration #  1     ecut=    80.00 Ry     beta= 0.50
     Davidson diagonalization with overlap
     ethr =  1.00E-02,  avg # of iterations =  2.0

     total cpu time spent up to now is        1.6 secs

     total energy              =    -314.88966400 Ry
     Harris-Foulkes estimate   =    -315.46016679 Ry
     estimated scf accuracy    <       0.90287412 Ry

     iteration #  2     ecut=    80.00 Ry     beta= 0.50
     Davidson diagonalization with overlap
     ethr =  2.82E-03,  avg # of iterations =  2.9

     total cpu time spent up to now is        2.4 secs

     total energy              =    -315.13144879 Ry
     Harris-Foulkes estimate   =    -315.24713489 Ry
     estimated scf accuracy    <       0.26754741 Ry

     iteration #  3     ecut=    80.00 Ry     beta= 0.50
     Davidson diagonalization with overlap
     ethr =  8.36E-04,  avg # of iterations =  2.0

     total cpu time spent up to now is        3.1 secs

     total energy              =    -315.17731130 Ry
     Harris-Foulkes estimate   =    -315.18020104 Ry
     estimated scf accuracy    <       0.00972017 Ry

     iteration #  4     ecut=    80.00 Ry     beta= 0.50
     Davidson diagonalization with overlap
     ethr =  3.04E-05,  avg # of iterations =  1.9

     total cpu time spent up to now is        3.7 secs

     total energy              =    -315.17793132 Ry
     Harris-Foulkes estimate   =    -315.17795651 Ry
     estimated scf accuracy    <       0.00051408 Ry

     iteration #  5     ecut=    80.00 Ry     beta= 0.50
     Davidson diagonalization with overlap
     ethr =  1.61E-06,  avg # of iterations =  2.0

     total cpu time spent up to now is        4.4 secs

     total energy              =    -315.17798821 Ry
     Harris-Foulkes estimate   =    -315.17798862 Ry
     estimated scf accuracy    <       0.00002146 Ry

     iteration #  6     ecut=    80.00 Ry     beta= 0.50
     Davidson diagonalization with overlap
     ethr =  6.71E-08,  avg # of iterations =  2.2

     total cpu time spent up to now is        5.1 secs

     End of self-consistent calculation

          k = 0.0000 0.0000 0.0000 (  3933 PWs)   bands (ev):

   -66.8738 -66.8702 -33.8838 -33.8463 -33.8463 -33.8395 -33.8395 -33.8386
   -11.5188 -10.7710   1.2077   3.9957   3.9957   4.2423   4.2423   4.3499

     occupation numbers 
     1.0000   1.0000   1.0000   1.0000   1.0000   1.0000   1.0000   1.0000
     1.0000   1.0000   1.0000   1.0000   1.0000   1.0000   1.0000   1.0000

          k = 0.0000 0.0000 0.0785 (  3898 PWs)   bands (ev):

   -66.8737 -66.8704 -33.8821 -33.8460 -33.8460 -33.8403 -33.8397 -33.8397
   -11.4922 -10.8016   1.2909   4.0048   4.0048   4.1346   4.2325   4.2325

     occupation numbers 
     1.0000   1.0000   1.0000   1.0000   1.0000   1.0000   1.0000   1.0000
     1.0000   1.0000   1.0000   1.0000   1.0000   1.0000   1.0000   1.0000

          k = 0.0000 0.0000 0.1570 (  3910 PWs)   bands (ev):

   -66.8733 -66.8707 -33.8772 -33.8453 -33.8453 -33.8453 -33.8405 -33.8405
   -11.4157 -10.8876   1.5351   3.6249   4.0307   4.0307   4.2050   4.2050

     occupation numbers 
     1.0000   1.0000   1.0000   1.0000   1.0000   1.0000   1.0000   1.0000
     1.0000   1.0000   1.0000   1.0000   1.0000   1.0000   1.0000   1.0000

          k = 0.0000 0.0000 0.2356 (  3880 PWs)   bands (ev):

   -66.8727 -66.8713 -33.8699 -33.8526 -33.8442 -33.8442 -33.8416 -33.8416
   -11.2992 -11.0137   1.9240   3.0190   4.0699   4.0699   4.1642   4.1642

     occupation numbers 
     1.0000   1.0000   1.0000   1.0000   1.0000   1.0000   1.0000   1.0000
     1.0000   1.0000   1.0000   1.0000   1.0000   1.0000   1.0000   1.0000

          k =-0.0000-0.0000-0.3141 (  3820 PWs)   bands (ev):

   -66.8720 -66.8720 -33.8613 -33.8613 -33.8429 -33.8429 -33.8428 -33.8428
   -11.1587 -11.1580   2.4313   2.4318   4.1164   4.1164   4.1171   4.1171

     occupation numbers 
     1.0000   1.0000   1.0000   1.0000   1.0000   1.0000   1.0000   1.0000
     1.0000   1.0000   1.0000   1.0000   1.0000   1.0000   1.0000   1.0000

          k = 0.0000 0.1443 0.0000 (  3889 PWs)   bands (ev):

   -66.8734 -66.8701 -33.8819 -33.8504 -33.8476 -33.8441 -33.8402 -33.8395
   -11.4349 -10.7358   1.3682   3.5512   3.7770   3.8938   4.2359   4.3146

     occupation numbers 
     1.0000   1.0000   1.0000   1.0000   1.0000   1.0000   1.0000   1.0000
     1.0000   1.0000   1.0000   1.0000   1.0000   1.0000   1.0000   1.0000

          k = 0.0000 0.1443 0.0785 (  3891 PWs)   bands (ev):

   -66.8733 -66.8702 -33.8805 -33.8501 -33.8473 -33.8454 -33.8405 -33.8402
   -11.4098 -10.7641   1.4374   3.5125   3.7273   3.9062   4.2221   4.2587

     occupation numbers 
     1.0000   1.0000   1.0000   1.0000   1.0000   1.0000   1.0000   1.0000
     1.0000   1.0000   1.0000   1.0000   1.0000   1.0000   1.0000   1.0000

          k = 0.0000 0.1443 0.1570 (  3886 PWs)   bands (ev):

   -66.8729 -66.8706 -33.8763 -33.8494 -33.8488 -33.8465 -33.8417 -33.8413
   -11.3377 -10.8438   1.6400   3.2567   3.7278   3.9416   4.1470   4.1834

     occupation numbers 
     1.0000   1.0000   1.0000   1.0000   1.0000   1.0000   1.0000   1.0000
     1.0000   1.0000   1.0000   1.0000   1.0000   1.0000   1.0000   1.0000

          k = 0.0000 0.1443 0.2356 (  3878 PWs)   bands (ev):

   -66.8724 -66.8711 -33.8700 -33.8553 -33.8474 -33.8453 -33.8435 -33.8425
   -11.2281 -10.9610   1.9606   2.8298   3.8060   3.9955   4.0292   4.1262

     occupation numbers 
     1.0000   1.0000   1.0000   1.0000   1.0000   1.0000   1.0000   1.0000
     1.0000   1.0000   1.0000   1.0000   1.0000   1.0000   1.0000   1.0000

          k =-0.0000 0.1443-0.3141 (  3880 PWs)   bands (ev):

   -66.8718 -66.8717 -33.8627 -33.8626 -33.8455 -33.8454 -33.8439 -33.8438
   -11.0965 -11.0958   2.3719   2.3723   3.9123   3.9128   4.0598   4.0605

     occupation numbers 
     1.0000   1.0000   1.0000   1.0000   1.0000   1.0000   1.0000   1.0000
     1.0000   1.0000   1.0000   1.0000   1.0000   1.0000   1.0000   1.0000

          k =-0.0000 0.1443-0.2356 (  3878 PWs)   bands (ev):

   -66.8724 -66.8711 -33.8700 -33.8553 -33.8474 -33.8453 -33.8435 -33.8425
   -11.2281 -10.9610   1.9606   2.8298   3.8060   3.9955   4.0292   4.1262

     occupation numbers 
     1.0000   1.0000   1.0000   1.0000   1.0000   1.0000   1.0000   1.0000
     1.0000   1.0000   1.0000   1.0000   1.0000   1.0000   1.0000   1.0000

          k =-0.0000 0.1443-0.1570 (  3886 PWs)   bands (ev):

   -66.8729 -66.8706 -33.8763 -33.8494 -33.8487 -33.8465 -33.8417 -33.8413
   -11.3377 -10.8438   1.6400   3.2568   3.7278   3.9416   4.1470   4.1834

     occupation numbers 
     1.0000   1.0000   1.0000   1.0000   1.0000   1.0000   1.0000   1.0000
     1.0000   1.0000   1.0000   1.0000   1.0000   1.0000   1.0000   1.0000

          k =-0.0000 0.1443-0.0785 (  3891 PWs)   bands (ev):

   -66.8733 -66.8702 -33.8805 -33.8501 -33.8473 -33.8454 -33.8405 -33.8402
   -11.4098 -10.7641   1.4374   3.5126   3.7273   3.9062   4.2221   4.2587

     occupation numbers 
     1.0000   1.0000   1.0000   1.0000   1.0000   1.0000   1.0000   1.0000
     1.0000   1.0000   1.0000   1.0000   1.0000   1.0000   1.0000   1.0000

          k = 0.0000 0.2887 0.0000 (  3881 PWs)   bands (ev):

   -66.8724 -66.8697 -33.8773 -33.8601 -33.8553 -33.8506 -33.8423 -33.8420
   -11.2177 -10.6581   1.8100   2.5560   3.0870   3.6920   4.1820   4.1838

     occupation numbers 
     1.0000   1.0000   1.0000   1.0000   1.0000   1.0000   1.0000   1.0000
     1.0000   1.0000   1.0000   1.0000   1.0000   1.0000   1.0000   1.0000

          k = 0.0000 0.2887 0.0785 (  3888 PWs)   bands (ev):

   -66.8723 -66.8698 -33.8768 -33.8592 -33.8564 -33.8503 -33.8426 -33.8424
   -11.1970 -10.6800   1.8098   2.5613   3.0860   3.7094   4.1630   4.1636

     occupation numbers 
     1.0000   1.0000   1.0000   1.0000   1.0000   1.0000   1.0000   1.0000
     1.0000   1.0000   1.0000   1.0000   1.0000   1.0000   1.0000   1.0000

          k = 0.0000 0.2887 0.1570 (  3885 PWs)   bands (ev):

   -66.8720 -66.8701 -33.8753 -33.8602 -33.8560 -33.8493 -33.8436 -33.8433
   -11.1377 -10.7420   1.8352   2.4778   3.1857   3.7593   4.0849   4.1066

     occupation numbers 
     1.0000   1.0000   1.0000   1.0000   1.0000   1.0000   1.0000   1.0000
     1.0000   1.0000   1.0000   1.0000   1.0000   1.0000   1.0000   1.0000

          k = 0.0000 0.2887 0.2356 (  3894 PWs)   bands (ev):

   -66.8716 -66.8706 -33.8725 -33.8643 -33.8526 -33.8480 -33.8458 -33.8447
   -11.0483 -10.8341   1.9221   2.2840   3.4173   3.8355   3.9225   4.0233

     occupation numbers 
     1.0000   1.0000   1.0000   1.0000   1.0000   1.0000   1.0000   1.0000
     1.0000   1.0000   1.0000   1.0000   1.0000   1.0000   1.0000   1.0000

          k =-0.0000 0.2887-0.3141 (  3890 PWs)   bands (ev):

   -66.8711 -66.8710 -33.8687 -33.8687 -33.8489 -33.8489 -33.8464 -33.8463
   -10.9421 -10.9414   2.0790   2.0790   3.6860   3.6860   3.9276   3.9283

     occupation numbers 
     1.0000   1.0000   1.0000   1.0000   1.0000   1.0000   1.0000   1.0000
     1.0000   1.0000   1.0000   1.0000   1.0000   1.0000   1.0000   1.0000

          k =-0.0000 0.2887-0.2356 (  3894 PWs)   bands (ev):

   -66.8716 -66.8706 -33.8725 -33.8643 -33.8526 -33.8480 -33.8458 -33.8447
   -11.0483 -10.8341   1.9221   2.2840   3.4173   3.8355   3.9225   4.0233

     occupation numbers 
     1.0000   1.0000   1.0000   1.0000   1.0000   1.0000   1.0000   1.0000
     1.0000   1.0000   1.0000   1.0000   1.0000   1.0000   1.0000   1.0000

          k =-0.0000 0.2887-0.1570 (  3885 PWs)   bands (ev):

   -66.8720 -66.8701 -33.8753 -33.8602 -33.8560 -33.8493 -33.8436 -33.8433
   -11.1377 -10.7420   1.8352   2.4778   3.1857   3.7593   4.0849   4.1066

     occupation numbers 
     1.0000   1.0000   1.0000   1.0000   1.0000   1.0000   1.0000   1.0000
     1.0000   1.0000   1.0000   1.0000   1.0000   1.0000   1.0000   1.0000

          k =-0.0000 0.2887-0.0785 (  3888 PWs)   bands (ev):

   -66.8723 -66.8698 -33.8768 -33.8592 -33.8564 -33.8503 -33.8426 -33.8424
   -11.1970 -10.6800   1.8098   2.5613   3.0860   3.7094   4.1630   4.1636

     occupation numbers 
     1.0000   1.0000   1.0000   1.0000   1.0000   1.0000   1.0000   1.0000
     1.0000   1.0000   1.0000   1.0000   1.0000   1.0000   1.0000   1.0000

          k = 0.0000 0.4330 0.0000 (  3891 PWs)   bands (ev):

   -66.8713 -66.8695 -33.8756 -33.8672 -33.8646 -33.8536 -33.8465 -33.8439
   -10.9646 -10.6046   1.7644   2.3886   2.5384   3.5190   3.9150   4.1133

     occupation numbers 
     1.0000   1.0000   1.0000   1.0000   1.0000   1.0000   1.0000   1.0000
     1.0000   1.0000   1.0000   1.0000   1.0000   1.0000   1.0000   1.0000

          k = 0.0000 0.4330 0.0785 (  3881 PWs)   bands (ev):

   -66.8712 -66.8696 -33.8768 -33.8681 -33.8626 -33.8532 -33.8463 -33.8443
   -10.9505 -10.6178   1.7004   2.2602   2.7165   3.5396   3.9462   4.0884

     occupation numbers 
     1.0000   1.0000   1.0000   1.0000   1.0000   1.0000   1.0000   1.0000
     1.0000   1.0000   1.0000   1.0000   1.0000   1.0000   1.0000   1.0000

          k = 0.0000 0.4330 0.1570 (  3889 PWs)   bands (ev):

   -66.8710 -66.8698 -33.8785 -33.8711 -33.8582 -33.8521 -33.8462 -33.8453
   -10.9104 -10.6555   1.6060   2.0393   3.0406   3.5990   3.9752   4.0185

     occupation numbers 
     1.0000   1.0000   1.0000   1.0000   1.0000   1.0000   1.0000   1.0000
     1.0000   1.0000   1.0000   1.0000   1.0000   1.0000   1.0000   1.0000

          k = 0.0000 0.4330 0.2356 (  3897 PWs)   bands (ev):

   -66.8707 -66.8701 -33.8788 -33.8746 -33.8535 -33.8506 -33.8472 -33.8469
   -10.8508 -10.7127   1.5803   1.8164   3.3932   3.6902   3.9047   3.9169

     occupation numbers 
     1.0000   1.0000   1.0000   1.0000   1.0000   1.0000   1.0000   1.0000
     1.0000   1.0000   1.0000   1.0000   1.0000   1.0000   1.0000   1.0000

          k =-0.0000 0.4330-0.3141 (  3906 PWs)   bands (ev):

   -66.8704 -66.8704 -33.8774 -33.8774 -33.8497 -33.8496 -33.8488 -33.8487
   -10.7816 -10.7809   1.6524   1.6526   3.7009   3.7012   3.8011   3.8018

     occupation numbers 
     1.0000   1.0000   1.0000   1.0000   1.0000   1.0000   1.0000   1.0000
     1.0000   1.0000   1.0000   1.0000   1.0000   1.0000   1.0000   1.0000

          k =-0.0000 0.4330-0.2356 (  3897 PWs)   bands (ev):

   -66.8707 -66.8701 -33.8788 -33.8746 -33.8535 -33.8506 -33.8472 -33.8469
   -10.8508 -10.7127   1.5803   1.8164   3.3932   3.6902   3.9047   3.9169

     occupation numbers 
     1.0000   1.0000   1.0000   1.0000   1.0000   1.0000   1.0000   1.0000
     1.0000   1.0000   1.0000   1.0000   1.0000   1.0000   1.0000   1.0000

          k =-0.0000 0.4330-0.1570 (  3889 PWs)   bands (ev):

   -66.8710 -66.8698 -33.8785 -33.8711 -33.8582 -33.8521 -33.8462 -33.8453
   -10.9104 -10.6555   1.6060   2.0393   3.0406   3.5990   3.9752   4.0185

     occupation numbers 
     1.0000   1.0000   1.0000   1.0000   1.0000   1.0000   1.0000   1.0000
     1.0000   1.0000   1.0000   1.0000   1.0000   1.0000   1.0000   1.0000

          k =-0.0000 0.4330-0.0785 (  3881 PWs)   bands (ev):

   -66.8712 -66.8696 -33.8768 -33.8681 -33.8626 -33.8532 -33.8463 -33.8443
   -10.9505 -10.6178   1.7004   2.2602   2.7165   3.5396   3.9462   4.0884

     occupation numbers 
     1.0000   1.0000   1.0000   1.0000   1.0000   1.0000   1.0000   1.0000
     1.0000   1.0000   1.0000   1.0000   1.0000   1.0000   1.0000   1.0000

          k =-0.0000-0.5774-0.0000 (  3904 PWs)   bands (ev):

   -66.8707 -66.8695 -33.8782 -33.8712 -33.8631 -33.8548 -33.8493 -33.8447
   -10.8322 -10.6063   1.4767   2.2822   2.8090   3.4525   3.6741   4.0817

     occupation numbers 
     1.0000   1.0000   1.0000   1.0000   1.0000   1.0000   1.0000   1.0000
     1.0000   1.0000   1.0000   1.0000   1.0000   1.0000   1.0000   1.0000

          k = 0.0000-0.5774 0.0785 (  3896 PWs)   bands (ev):

   -66.8707 -66.8696 -33.8793 -33.8725 -33.8611 -33.8544 -33.8488 -33.8451
   -10.8227 -10.6139   1.4395   2.1614   2.9162   3.4742   3.7518   4.0551

     occupation numbers 
     1.0000   1.0000   1.0000   1.0000   1.0000   1.0000   1.0000   1.0000
     1.0000   1.0000   1.0000   1.0000   1.0000   1.0000   1.0000   1.0000

          k = 0.0000-0.5774 0.1570 (  3906 PWs)   bands (ev):

   -66.8705 -66.8697 -33.8813 -33.8756 -33.8570 -33.8533 -33.8479 -33.8462
   -10.7960 -10.6361   1.3800   1.9037   3.1764   3.5368   3.8712   3.9808

     occupation numbers 
     1.0000   1.0000   1.0000   1.0000   1.0000   1.0000   1.0000   1.0000
     1.0000   1.0000   1.0000   1.0000   1.0000   1.0000   1.0000   1.0000

          k = 0.0000-0.5774 0.2356 (  3896 PWs)   bands (ev):

   -66.8704 -66.8699 -33.8821 -33.8790 -33.8527 -33.8517 -33.8480 -33.8478
   -10.7571 -10.6704   1.3747   1.6472   3.4829   3.6330   3.8729   3.8843

     occupation numbers 
     1.0000   1.0000   1.0000   1.0000   1.0000   1.0000   1.0000   1.0000
     1.0000   1.0000   1.0000   1.0000   1.0000   1.0000   1.0000   1.0000

          k =-0.0000-0.5774-0.3141 (  3892 PWs)   bands (ev):

   -66.8702 -66.8701 -33.8814 -33.8813 -33.8498 -33.8497 -33.8496 -33.8496
   -10.7131 -10.7124   1.4620   1.4623   3.7433   3.7437   3.7502   3.7509

     occupation numbers 
     1.0000   1.0000   1.0000   1.0000   1.0000   1.0000   1.0000   1.0000
     1.0000   1.0000   1.0000   1.0000   1.0000   1.0000   1.0000   1.0000

          k = 0.1250 0.0722 0.0000 (  3889 PWs)   bands (ev):

   -66.8734 -66.8701 -33.8819 -33.8504 -33.8476 -33.8441 -33.8402 -33.8395
   -11.4349 -10.7358   1.3682   3.5512   3.7770   3.8938   4.2359   4.3146

     occupation numbers 
     1.0000   1.0000   1.0000   1.0000   1.0000   1.0000   1.0000   1.0000
     1.0000   1.0000   1.0000   1.0000   1.0000   1.0000   1.0000   1.0000

          k = 0.1250 0.0722 0.0785 (  3891 PWs)   bands (ev):

   -66.8733 -66.8702 -33.8805 -33.8501 -33.8473 -33.8454 -33.8405 -33.8402
   -11.4098 -10.7641   1.4374   3.5125   3.7273   3.9062   4.2221   4.2587

     occupation numbers 
     1.0000   1.0000   1.0000   1.0000   1.0000   1.0000   1.0000   1.0000
     1.0000   1.0000   1.0000   1.0000   1.0000   1.0000   1.0000   1.0000

          k = 0.1250 0.0722 0.1570 (  3886 PWs)   bands (ev):

   -66.8729 -66.8706 -33.8763 -33.8494 -33.8487 -33.8465 -33.8417 -33.8413
   -11.3377 -10.8438   1.6400   3.2568   3.7278   3.9416   4.1470   4.1834

     occupation numbers 
     1.0000   1.0000   1.0000   1.0000   1.0000   1.0000   1.0000   1.0000
     1.0000   1.0000   1.0000   1.0000   1.0000   1.0000   1.0000   1.0000

          k = 0.1250 0.0722 0.2356 (  3878 PWs)   bands (ev):

   -66.8724 -66.8711 -33.8700 -33.8553 -33.8474 -33.8453 -33.8435 -33.8425
   -11.2281 -10.9610   1.9606   2.8298   3.8060   3.9955   4.0292   4.1262

     occupation numbers 
     1.0000   1.0000   1.0000   1.0000   1.0000   1.0000   1.0000   1.0000
     1.0000   1.0000   1.0000   1.0000   1.0000   1.0000   1.0000   1.0000

          k = 0.1250 0.0722-0.3141 (  3880 PWs)   bands (ev):

   -66.8718 -66.8717 -33.8627 -33.8626 -33.8455 -33.8454 -33.8439 -33.8438
   -11.0965 -11.0958   2.3719   2.3723   3.9123   3.9128   4.0598   4.0605

     occupation numbers 
     1.0000   1.0000   1.0000   1.0000   1.0000   1.0000   1.0000   1.0000
     1.0000   1.0000   1.0000   1.0000   1.0000   1.0000   1.0000   1.0000

          k = 0.1250 0.0722-0.2356 (  3878 PWs)   bands (ev):

   -66.8724 -66.8711 -33.8700 -33.8553 -33.8474 -33.8453 -33.8435 -33.8425
   -11.2281 -10.9610   1.9606   2.8298   3.8060   3.9955   4.0292   4.1262

     occupation numbers 
     1.0000   1.0000   1.0000   1.0000   1.0000   1.0000   1.0000   1.0000
     1.0000   1.0000   1.0000   1.0000   1.0000   1.0000   1.0000   1.0000

          k = 0.1250 0.0722-0.1570 (  3886 PWs)   bands (ev):

   -66.8729 -66.8706 -33.8763 -33.8494 -33.8488 -33.8465 -33.8417 -33.8413
   -11.3377 -10.8438   1.6400   3.2567   3.7278   3.9416   4.1470   4.1834

     occupation numbers 
     1.0000   1.0000   1.0000   1.0000   1.0000   1.0000   1.0000   1.0000
     1.0000   1.0000   1.0000   1.0000   1.0000   1.0000   1.0000   1.0000

          k = 0.1250 0.0722-0.0785 (  3891 PWs)   bands (ev):

   -66.8733 -66.8702 -33.8805 -33.8501 -33.8473 -33.8454 -33.8405 -33.8402
   -11.4098 -10.7641   1.4374   3.5125   3.7273   3.9062   4.2221   4.2587

     occupation numbers 
     1.0000   1.0000   1.0000   1.0000   1.0000   1.0000   1.0000   1.0000
     1.0000   1.0000   1.0000   1.0000   1.0000   1.0000   1.0000   1.0000

          k = 0.1250 0.2165 0.0000 (  3895 PWs)   bands (ev):

   -66.8727 -66.8698 -33.8786 -33.8564 -33.8533 -33.8487 -33.8422 -33.8414
   -11.2841 -10.6794   1.6702   2.9092   3.1818   3.8200   4.1076   4.2313

     occupation numbers 
     1.0000   1.0000   1.0000   1.0000   1.0000   1.0000   1.0000   1.0000
     1.0000   1.0000   1.0000   1.0000   1.0000   1.0000   1.0000   1.0000

          k = 0.1250 0.2165 0.0785 (  3882 PWs)   bands (ev):

   -66.8726 -66.8699 -33.8777 -33.8557 -33.8540 -33.8490 -33.8425 -33.8417
   -11.2619 -10.7033   1.7030   2.8569   3.2308   3.7911   4.0893   4.2188

     occupation numbers 
     1.0000   1.0000   1.0000   1.0000   1.0000   1.0000   1.0000   1.0000
     1.0000   1.0000   1.0000   1.0000   1.0000   1.0000   1.0000   1.0000

          k = 0.1250 0.2165 0.1570 (  3890 PWs)   bands (ev):

   -66.8723 -66.8702 -33.8752 -33.8568 -33.8538 -33.8490 -33.8433 -33.8427
   -11.1985 -10.7710   1.8036   2.6984   3.3647   3.7531   4.0397   4.1589

     occupation numbers 
     1.0000   1.0000   1.0000   1.0000   1.0000   1.0000   1.0000   1.0000
     1.0000   1.0000   1.0000   1.0000   1.0000   1.0000   1.0000   1.0000

          k = 0.1250 0.2165 0.2356 (  3878 PWs)   bands (ev):

   -66.8718 -66.8707 -33.8712 -33.8612 -33.8511 -33.8481 -33.8446 -33.8446
   -11.1025 -10.8712   1.9729   2.4603   3.5476   3.7480   3.9768   4.0434

     occupation numbers 
     1.0000   1.0000   1.0000   1.0000   1.0000   1.0000   1.0000   1.0000
     1.0000   1.0000   1.0000   1.0000   1.0000   1.0000   1.0000   1.0000

          k = 0.1250 0.2165-0.3141 (  3882 PWs)   bands (ev):

   -66.8713 -66.8712 -33.8664 -33.8663 -33.8484 -33.8483 -33.8458 -33.8457
   -10.9880 -10.9873   2.2013   2.2014   3.7089   3.7092   3.9497   3.9503

     occupation numbers 
     1.0000   1.0000   1.0000   1.0000   1.0000   1.0000   1.0000   1.0000
     1.0000   1.0000   1.0000   1.0000   1.0000   1.0000   1.0000   1.0000

          k = 0.1250 0.2165-0.2356 (  3878 PWs)   bands (ev):

   -66.8718 -66.8707 -33.8712 -33.8612 -33.8510 -33.8481 -33.8446 -33.8446
   -11.1025 -10.8712   1.9729   2.4603   3.5476   3.7480   3.9768   4.0434

     occupation numbers 
     1.0000   1.0000   1.0000   1.0000   1.0000   1.0000   1.0000   1.0000
     1.0000   1.0000   1.0000   1.0000   1.0000   1.0000   1.0000   1.0000

          k = 0.1250 0.2165-0.1570 (  3890 PWs)   bands (ev):

   -66.8723 -66.8702 -33.8752 -33.8567 -33.8538 -33.8490 -33.8433 -33.8427
   -11.1985 -10.7710   1.8036   2.6984   3.3647   3.7531   4.0397   4.1589

     occupation numbers 
     1.0000   1.0000   1.0000   1.0000   1.0000   1.0000   1.0000   1.0000
     1.0000   1.0000   1.0000   1.0000   1.0000   1.0000   1.0000   1.0000

          k = 0.1250 0.2165-0.0785 (  3882 PWs)   bands (ev):

   -66.8726 -66.8699 -33.8777 -33.8557 -33.8540 -33.8490 -33.8425 -33.8417
   -11.2619 -10.7033   1.7030   2.8569   3.2308   3.7911   4.0893   4.2188

     occupation numbers 
     1.0000   1.0000   1.0000   1.0000   1.0000   1.0000   1.0000   1.0000
     1.0000   1.0000   1.0000   1.0000   1.0000   1.0000   1.0000   1.0000

          k = 0.1250 0.3608 0.0000 (  3877 PWs)   bands (ev):

   -66.8716 -66.8696 -33.8745 -33.8643 -33.8622 -33.8534 -33.8452 -33.8449
   -11.0466 -10.6147   2.1084   2.2050   2.7033   3.5029   3.9537   4.0340

     occupation numbers 
     1.0000   1.0000   1.0000   1.0000   1.0000   1.0000   1.0000   1.0000
     1.0000   1.0000   1.0000   1.0000   1.0000   1.0000   1.0000   1.0000

          k = 0.1250 0.3608 0.0785 (  3880 PWs)   bands (ev):

   -66.8715 -66.8696 -33.8752 -33.8645 -33.8612 -33.8534 -33.8456 -33.8446
   -11.0300 -10.6309   1.9923   2.2158   2.8293   3.4820   3.9134   4.0777

     occupation numbers 
     1.0000   1.0000   1.0000   1.0000   1.0000   1.0000   1.0000   1.0000
     1.0000   1.0000   1.0000   1.0000   1.0000   1.0000   1.0000   1.0000

          k = 0.1250 0.3608 0.1570 (  3883 PWs)   bands (ev):

   -66.8713 -66.8699 -33.8760 -33.8670 -33.8575 -33.8528 -33.8466 -33.8446
   -10.9829 -10.6773   1.8678   2.1268   3.0965   3.4811   3.8332   4.1113

     occupation numbers 
     1.0000   1.0000   1.0000   1.0000   1.0000   1.0000   1.0000   1.0000
     1.0000   1.0000   1.0000   1.0000   1.0000   1.0000   1.0000   1.0000

          k = 0.1250 0.3608 0.2356 (  3894 PWs)   bands (ev):

   -66.8710 -66.8702 -33.8755 -33.8705 -33.8536 -33.8515 -33.8479 -33.8455
   -10.9124 -10.7470   1.8246   1.9884   3.3388   3.5416   3.7742   4.0529

     occupation numbers 
     1.0000   1.0000   1.0000   1.0000   1.0000   1.0000   1.0000   1.0000
     1.0000   1.0000   1.0000   1.0000   1.0000   1.0000   1.0000   1.0000

          k = 0.1250 0.3608-0.3141 (  3900 PWs)   bands (ev):

   -66.8706 -66.8705 -33.8736 -33.8736 -33.8512 -33.8512 -33.8475 -33.8475
   -10.8299 -10.8292   1.8717   1.8719   3.4899   3.4902   3.8987   3.8990

     occupation numbers 
     1.0000   1.0000   1.0000   1.0000   1.0000   1.0000   1.0000   1.0000
     1.0000   1.0000   1.0000   1.0000   1.0000   1.0000   1.0000   1.0000

          k = 0.1250 0.3608-0.2356 (  3894 PWs)   bands (ev):

   -66.8710 -66.8702 -33.8755 -33.8705 -33.8536 -33.8515 -33.8479 -33.8456
   -10.9124 -10.7470   1.8246   1.9885   3.3388   3.5416   3.7742   4.0529

     occupation numbers 
     1.0000   1.0000   1.0000   1.0000   1.0000   1.0000   1.0000   1.0000
     1.0000   1.0000   1.0000   1.0000   1.0000   1.0000   1.0000   1.0000

          k = 0.1250 0.3608-0.1570 (  3883 PWs)   bands (ev):

   -66.8713 -66.8699 -33.8760 -33.8670 -33.8575 -33.8528 -33.8466 -33.8446
   -10.9829 -10.6773   1.8678   2.1268   3.0965   3.4811   3.8332   4.1113

     occupation numbers 
     1.0000   1.0000   1.0000   1.0000   1.0000   1.0000   1.0000   1.0000
     1.0000   1.0000   1.0000   1.0000   1.0000   1.0000   1.0000   1.0000

          k = 0.1250 0.3608-0.0785 (  3880 PWs)   bands (ev):

   -66.8715 -66.8696 -33.8752 -33.8645 -33.8612 -33.8534 -33.8456 -33.8446
   -11.0300 -10.6309   1.9923   2.2158   2.8292   3.4820   3.9134   4.0777

     occupation numbers 
     1.0000   1.0000   1.0000   1.0000   1.0000   1.0000   1.0000   1.0000
     1.0000   1.0000   1.0000   1.0000   1.0000   1.0000   1.0000   1.0000

          k = 0.1250 0.5052 0.0000 (  3892 PWs)   bands (ev):

   -66.8707 -66.8695 -33.8759 -33.8695 -33.8629 -33.8566 -33.8494 -33.8470
   -10.8385 -10.6020   1.6401   2.3994   2.7711   3.2554   3.7221   3.8580

     occupation numbers 
     1.0000   1.0000   1.0000   1.0000   1.0000   1.0000   1.0000   1.0000
     1.0000   1.0000   1.0000   1.0000   1.0000   1.0000   1.0000   1.0000

          k = 0.1250 0.5052 0.0785 (  3895 PWs)   bands (ev):

   -66.8707 -66.8696 -33.8772 -33.8709 -33.8611 -33.8560 -33.8491 -33.8470
   -10.8287 -10.6100   1.6078   2.2595   2.8708   3.3029   3.7350   3.8882

     occupation numbers 
     1.0000   1.0000   1.0000   1.0000   1.0000   1.0000   1.0000   1.0000
     1.0000   1.0000   1.0000   1.0000   1.0000   1.0000   1.0000   1.0000

          k = 0.1250 0.5052 0.1570 (  3893 PWs)   bands (ev):

   -66.8705 -66.8697 -33.8792 -33.8739 -33.8581 -33.8540 -33.8495 -33.8466
   -10.8009 -10.6334   1.5518   2.0099   3.0120   3.4721   3.6647   3.9967

     occupation numbers 
     1.0000   1.0000   1.0000   1.0000   1.0000   1.0000   1.0000   1.0000
     1.0000   1.0000   1.0000   1.0000   1.0000   1.0000   1.0000   1.0000

          k = 0.1250 0.5052 0.2356 (  3894 PWs)   bands (ev):

   -66.8704 -66.8699 -33.8802 -33.8772 -33.8556 -33.8518 -33.8501 -33.8465
   -10.7603 -10.6696   1.5399   1.7760   3.1568   3.4826   3.7539   4.0390

     occupation numbers 
     1.0000   1.0000   1.0000   1.0000   1.0000   1.0000   1.0000   1.0000
     1.0000   1.0000   1.0000   1.0000   1.0000   1.0000   1.0000   1.0000

          k = 0.1250 0.5052-0.3141 (  3888 PWs)   bands (ev):

   -66.8702 -66.8701 -33.8795 -33.8794 -33.8534 -33.8534 -33.8478 -33.8478
   -10.7144 -10.7137   1.6120   1.6123   3.3199   3.3202   3.9501   3.9502

     occupation numbers 
     1.0000   1.0000   1.0000   1.0000   1.0000   1.0000   1.0000   1.0000
     1.0000   1.0000   1.0000   1.0000   1.0000   1.0000   1.0000   1.0000

          k = 0.1250 0.5052-0.2356 (  3894 PWs)   bands (ev):

   -66.8704 -66.8699 -33.8802 -33.8772 -33.8556 -33.8518 -33.8501 -33.8465
   -10.7603 -10.6696   1.5399   1.7760   3.1568   3.4827   3.7539   4.0390

     occupation numbers 
     1.0000   1.0000   1.0000   1.0000   1.0000   1.0000   1.0000   1.0000
     1.0000   1.0000   1.0000   1.0000   1.0000   1.0000   1.0000   1.0000

          k = 0.1250 0.5052-0.1570 (  3893 PWs)   bands (ev):

   -66.8705 -66.8697 -33.8792 -33.8739 -33.8581 -33.8540 -33.8495 -33.8466
   -10.8009 -10.6334   1.5518   2.0099   3.0120   3.4721   3.6647   3.9967

     occupation numbers 
     1.0000   1.0000   1.0000   1.0000   1.0000   1.0000   1.0000   1.0000
     1.0000   1.0000   1.0000   1.0000   1.0000   1.0000   1.0000   1.0000

          k = 0.1250 0.5052-0.0785 (  3895 PWs)   bands (ev):

   -66.8707 -66.8696 -33.8772 -33.8709 -33.8611 -33.8560 -33.8491 -33.8470
   -10.8287 -10.6100   1.6078   2.2595   2.8708   3.3029   3.7350   3.8882

     occupation numbers 
     1.0000   1.0000   1.0000   1.0000   1.0000   1.0000   1.0000   1.0000
     1.0000   1.0000   1.0000   1.0000   1.0000   1.0000   1.0000   1.0000

          k = 0.1250-0.5052-0.0000 (  3892 PWs)   bands (ev):

   -66.8707 -66.8695 -33.8759 -33.8695 -33.8629 -33.8566 -33.8494 -33.8470
   -10.8385 -10.6020   1.6401   2.3994   2.7711   3.2554   3.7221   3.8580

     occupation numbers 
     1.0000   1.0000   1.0000   1.0000   1.0000   1.0000   1.0000   1.0000
     1.0000   1.0000   1.0000   1.0000   1.0000   1.0000   1.0000   1.0000

          k = 0.1250-0.5052 0.0785 (  3895 PWs)   bands (ev):

   -66.8707 -66.8696 -33.8772 -33.8709 -33.8611 -33.8560 -33.8491 -33.8470
   -10.8287 -10.6100   1.6078   2.2595   2.8708   3.3029   3.7350   3.8882

     occupation numbers 
     1.0000   1.0000   1.0000   1.0000   1.0000   1.0000   1.0000   1.0000
     1.0000   1.0000   1.0000   1.0000   1.0000   1.0000   1.0000   1.0000

          k = 0.1250-0.5052 0.1570 (  3893 PWs)   bands (ev):

   -66.8705 -66.8697 -33.8792 -33.8739 -33.8581 -33.8540 -33.8495 -33.8466
   -10.8009 -10.6334   1.5518   2.0099   3.0120   3.4721   3.6647   3.9967

     occupation numbers 
     1.0000   1.0000   1.0000   1.0000   1.0000   1.0000   1.0000   1.0000
     1.0000   1.0000   1.0000   1.0000   1.0000   1.0000   1.0000   1.0000

          k = 0.1250-0.5052 0.2356 (  3894 PWs)   bands (ev):

   -66.8704 -66.8699 -33.8802 -33.8772 -33.8556 -33.8518 -33.8501 -33.8465
   -10.7603 -10.6696   1.5399   1.7760   3.1568   3.4827   3.7539   4.0390

     occupation numbers 
     1.0000   1.0000   1.0000   1.0000   1.0000   1.0000   1.0000   1.0000
     1.0000   1.0000   1.0000   1.0000   1.0000   1.0000   1.0000   1.0000

          k = 0.1250-0.5052-0.3141 (  3888 PWs)   bands (ev):

   -66.8702 -66.8701 -33.8795 -33.8794 -33.8534 -33.8534 -33.8478 -33.8478
   -10.7144 -10.7137   1.6120   1.6123   3.3199   3.3202   3.9501   3.9502

     occupation numbers 
     1.0000   1.0000   1.0000   1.0000   1.0000   1.0000   1.0000   1.0000
     1.0000   1.0000   1.0000   1.0000   1.0000   1.0000   1.0000   1.0000

          k = 0.1250-0.5052-0.2356 (  3894 PWs)   bands (ev):

   -66.8704 -66.8699 -33.8802 -33.8772 -33.8556 -33.8518 -33.8501 -33.8465
   -10.7603 -10.6696   1.5399   1.7760   3.1568   3.4826   3.7539   4.0390

     occupation numbers 
     1.0000   1.0000   1.0000   1.0000   1.0000   1.0000   1.0000   1.0000
     1.0000   1.0000   1.0000   1.0000   1.0000   1.0000   1.0000   1.0000

          k = 0.1250-0.5052-0.1570 (  3893 PWs)   bands (ev):

   -66.8705 -66.8697 -33.8792 -33.8739 -33.8581 -33.8540 -33.8495 -33.8466
   -10.8009 -10.6334   1.5518   2.0099   3.0120   3.4721   3.6647   3.9967

     occupation numbers 
     1.0000   1.0000   1.0000   1.0000   1.0000   1.0000   1.0000   1.0000
     1.0000   1.0000   1.0000   1.0000   1.0000   1.0000   1.0000   1.0000

          k = 0.1250-0.5052-0.0785 (  3895 PWs)   bands (ev):

   -66.8707 -66.8696 -33.8772 -33.8709 -33.8611 -33.8560 -33.8491 -33.8470
   -10.8287 -10.6100   1.6078   2.2595   2.8708   3.3029   3.7350   3.8882

     occupation numbers 
     1.0000   1.0000   1.0000   1.0000   1.0000   1.0000   1.0000   1.0000
     1.0000   1.0000   1.0000   1.0000   1.0000   1.0000   1.0000   1.0000

          k = 0.1250-0.3608-0.0000 (  3877 PWs)   bands (ev):

   -66.8716 -66.8696 -33.8745 -33.8643 -33.8622 -33.8534 -33.8452 -33.8449
   -11.0466 -10.6147   2.1084   2.2050   2.7033   3.5029   3.9537   4.0340

     occupation numbers 
     1.0000   1.0000   1.0000   1.0000   1.0000   1.0000   1.0000   1.0000
     1.0000   1.0000   1.0000   1.0000   1.0000   1.0000   1.0000   1.0000

          k = 0.1250-0.3608 0.0785 (  3880 PWs)   bands (ev):

   -66.8715 -66.8696 -33.8752 -33.8645 -33.8612 -33.8534 -33.8456 -33.8446
   -11.0300 -10.6309   1.9923   2.2158   2.8292   3.4820   3.9134   4.0777

     occupation numbers 
     1.0000   1.0000   1.0000   1.0000   1.0000   1.0000   1.0000   1.0000
     1.0000   1.0000   1.0000   1.0000   1.0000   1.0000   1.0000   1.0000

          k = 0.1250-0.3608 0.1570 (  3883 PWs)   bands (ev):

   -66.8713 -66.8699 -33.8760 -33.8670 -33.8575 -33.8528 -33.8466 -33.8446
   -10.9829 -10.6773   1.8678   2.1268   3.0965   3.4811   3.8332   4.1113

     occupation numbers 
     1.0000   1.0000   1.0000   1.0000   1.0000   1.0000   1.0000   1.0000
     1.0000   1.0000   1.0000   1.0000   1.0000   1.0000   1.0000   1.0000

          k = 0.1250-0.3608 0.2356 (  3894 PWs)   bands (ev):

   -66.8710 -66.8702 -33.8755 -33.8705 -33.8536 -33.8515 -33.8479 -33.8455
   -10.9124 -10.7470   1.8246   1.9885   3.3388   3.5416   3.7742   4.0529

     occupation numbers 
     1.0000   1.0000   1.0000   1.0000   1.0000   1.0000   1.0000   1.0000
     1.0000   1.0000   1.0000   1.0000   1.0000   1.0000   1.0000   1.0000

          k = 0.1250-0.3608-0.3141 (  3900 PWs)   bands (ev):

   -66.8706 -66.8705 -33.8736 -33.8736 -33.8512 -33.8512 -33.8475 -33.8475
   -10.8299 -10.8292   1.8717   1.8719   3.4899   3.4902   3.8987   3.8990

[...]
     1.0000   1.0000   1.0000   1.0000   1.0000   1.0000   1.0000   1.0000

          k =-0.5000-0.1443 0.0785 (  3895 PWs)   bands (ev):

   -66.8707 -66.8696 -33.8772 -33.8709 -33.8611 -33.8560 -33.8491 -33.8470
   -10.8287 -10.6100   1.6078   2.2595   2.8709   3.3029   3.7350   3.8882

     occupation numbers 
     1.0000   1.0000   1.0000   1.0000   1.0000   1.0000   1.0000   1.0000
     1.0000   1.0000   1.0000   1.0000   1.0000   1.0000   1.0000   1.0000

          k =-0.5000-0.1443 0.1570 (  3893 PWs)   bands (ev):

   -66.8705 -66.8697 -33.8792 -33.8739 -33.8581 -33.8540 -33.8495 -33.8466
   -10.8009 -10.6334   1.5518   2.0099   3.0120   3.4721   3.6647   3.9967

     occupation numbers 
     1.0000   1.0000   1.0000   1.0000   1.0000   1.0000   1.0000   1.0000
     1.0000   1.0000   1.0000   1.0000   1.0000   1.0000   1.0000   1.0000

          k =-0.5000-0.1443 0.2356 (  3894 PWs)   bands (ev):

   -66.8704 -66.8699 -33.8802 -33.8772 -33.8556 -33.8518 -33.8501 -33.8465
   -10.7603 -10.6696   1.5399   1.7760   3.1568   3.4827   3.7539   4.0390

     occupation numbers 
     1.0000   1.0000   1.0000   1.0000   1.0000   1.0000   1.0000   1.0000
     1.0000   1.0000   1.0000   1.0000   1.0000   1.0000   1.0000   1.0000

          k =-0.5000-0.1443-0.3141 (  3888 PWs)   bands (ev):

   -66.8702 -66.8701 -33.8795 -33.8794 -33.8534 -33.8534 -33.8478 -33.8478
   -10.7144 -10.7137   1.6120   1.6122   3.3199   3.3203   3.9501   3.9502

     occupation numbers 
     1.0000   1.0000   1.0000   1.0000   1.0000   1.0000   1.0000   1.0000
     1.0000   1.0000   1.0000   1.0000   1.0000   1.0000   1.0000   1.0000

          k =-0.5000-0.1443-0.2356 (  3894 PWs)   bands (ev):

   -66.8704 -66.8699 -33.8802 -33.8772 -33.8556 -33.8518 -33.8501 -33.8465
   -10.7603 -10.6696   1.5399   1.7760   3.1568   3.4827   3.7539   4.0390

     occupation numbers 
     1.0000   1.0000   1.0000   1.0000   1.0000   1.0000   1.0000   1.0000
     1.0000   1.0000   1.0000   1.0000   1.0000   1.0000   1.0000   1.0000

          k =-0.5000-0.1443-0.1570 (  3893 PWs)   bands (ev):

   -66.8705 -66.8697 -33.8792 -33.8739 -33.8581 -33.8540 -33.8495 -33.8466
   -10.8009 -10.6334   1.5518   2.0099   3.0120   3.4721   3.6647   3.9967

     occupation numbers 
     1.0000   1.0000   1.0000   1.0000   1.0000   1.0000   1.0000   1.0000
     1.0000   1.0000   1.0000   1.0000   1.0000   1.0000   1.0000   1.0000

          k =-0.5000-0.1443-0.0785 (  3895 PWs)   bands (ev):

   -66.8707 -66.8696 -33.8772 -33.8709 -33.8611 -33.8560 -33.8491 -33.8470
   -10.8287 -10.6100   1.6078   2.2595   2.8708   3.3029   3.7350   3.8882

     occupation numbers 
     1.0000   1.0000   1.0000   1.0000   1.0000   1.0000   1.0000   1.0000
     1.0000   1.0000   1.0000   1.0000   1.0000   1.0000   1.0000   1.0000

          k =-0.5000-0.0000-0.0000 (  3867 PWs)   bands (ev):

   -66.8707 -66.8695 -33.8724 -33.8689 -33.8615 -33.8591 -33.8500 -33.8492
   -10.8446 -10.5978   1.8796   2.4543   2.7684   3.0983   3.5457   3.7743

     occupation numbers 
     1.0000   1.0000   1.0000   1.0000   1.0000   1.0000   1.0000   1.0000
     1.0000   1.0000   1.0000   1.0000   1.0000   1.0000   1.0000   1.0000

          k =-0.5000-0.0000 0.0785 (  3873 PWs)   bands (ev):

   -66.8707 -66.8696 -33.8740 -33.8699 -33.8594 -33.8593 -33.8503 -33.8483
   -10.8344 -10.6063   1.8779   2.2490   3.0079   3.0159   3.5148   3.8696

     occupation numbers 
     1.0000   1.0000   1.0000   1.0000   1.0000   1.0000   1.0000   1.0000
     1.0000   1.0000   1.0000   1.0000   1.0000   1.0000   1.0000   1.0000

          k =-0.5000-0.0000 0.1570 (  3884 PWs)   bands (ev):

   -66.8705 -66.8697 -33.8764 -33.8724 -33.8591 -33.8556 -33.8510 -33.8468
   -10.8056 -10.6309   1.8624   2.0139   2.9075   3.2364   3.5320   4.0183

     occupation numbers 
     1.0000   1.0000   1.0000   1.0000   1.0000   1.0000   1.0000   1.0000
     1.0000   1.0000   1.0000   1.0000   1.0000   1.0000   1.0000   1.0000

          k =-0.5000 0.0000 0.2356 (  3893 PWs)   bands (ev):

   -66.8704 -66.8699 -33.8777 -33.8753 -33.8579 -33.8545 -33.8497 -33.8463
   -10.7635 -10.6688   1.8289   1.8668   2.9009   3.1470   3.7846   4.0785

     occupation numbers 
     1.0000   1.0000   1.0000   1.0000   1.0000   1.0000   1.0000   1.0000
     1.0000   1.0000   1.0000   1.0000   1.0000   1.0000   1.0000   1.0000

          k =-0.5000-0.0000-0.3141 (  3900 PWs)   bands (ev):

   -66.8702 -66.8701 -33.8773 -33.8772 -33.8561 -33.8560 -33.8473 -33.8473
   -10.7157 -10.7149   1.8137   1.8140   2.9991   2.9995   3.9978   3.9979

     occupation numbers 
     1.0000   1.0000   1.0000   1.0000   1.0000   1.0000   1.0000   1.0000
     1.0000   1.0000   1.0000   1.0000   1.0000   1.0000   1.0000   1.0000

          k =-0.5000-0.0000-0.2356 (  3893 PWs)   bands (ev):

   -66.8704 -66.8699 -33.8777 -33.8753 -33.8579 -33.8545 -33.8497 -33.8463
   -10.7635 -10.6688   1.8289   1.8668   2.9009   3.1470   3.7846   4.0785

     occupation numbers 
     1.0000   1.0000   1.0000   1.0000   1.0000   1.0000   1.0000   1.0000
     1.0000   1.0000   1.0000   1.0000   1.0000   1.0000   1.0000   1.0000

          k =-0.5000-0.0000-0.1570 (  3884 PWs)   bands (ev):

   -66.8705 -66.8697 -33.8764 -33.8724 -33.8591 -33.8556 -33.8510 -33.8468
   -10.8056 -10.6309   1.8624   2.0139   2.9075   3.2364   3.5320   4.0183

     occupation numbers 
     1.0000   1.0000   1.0000   1.0000   1.0000   1.0000   1.0000   1.0000
     1.0000   1.0000   1.0000   1.0000   1.0000   1.0000   1.0000   1.0000

          k =-0.5000-0.0000-0.0785 (  3873 PWs)   bands (ev):

   -66.8707 -66.8696 -33.8740 -33.8699 -33.8594 -33.8593 -33.8503 -33.8483
   -10.8344 -10.6063   1.8779   2.2490   3.0079   3.0159   3.5148   3.8696

     occupation numbers 
     1.0000   1.0000   1.0000   1.0000   1.0000   1.0000   1.0000   1.0000
     1.0000   1.0000   1.0000   1.0000   1.0000   1.0000   1.0000   1.0000

          k =-0.5000 0.1443-0.0000 (  3892 PWs)   bands (ev):

   -66.8707 -66.8695 -33.8759 -33.8695 -33.8629 -33.8566 -33.8494 -33.8470
   -10.8385 -10.6020   1.6401   2.3994   2.7711   3.2554   3.7221   3.8580

     occupation numbers 
     1.0000   1.0000   1.0000   1.0000   1.0000   1.0000   1.0000   1.0000
     1.0000   1.0000   1.0000   1.0000   1.0000   1.0000   1.0000   1.0000

          k =-0.5000 0.1443 0.0785 (  3895 PWs)   bands (ev):

   -66.8707 -66.8696 -33.8772 -33.8709 -33.8611 -33.8560 -33.8491 -33.8470
   -10.8287 -10.6100   1.6078   2.2595   2.8708   3.3029   3.7350   3.8882

     occupation numbers 
     1.0000   1.0000   1.0000   1.0000   1.0000   1.0000   1.0000   1.0000
     1.0000   1.0000   1.0000   1.0000   1.0000   1.0000   1.0000   1.0000

          k =-0.5000 0.1443 0.1570 (  3893 PWs)   bands (ev):

   -66.8705 -66.8697 -33.8792 -33.8739 -33.8581 -33.8540 -33.8495 -33.8466
   -10.8009 -10.6334   1.5518   2.0099   3.0120   3.4721   3.6647   3.9967

     occupation numbers 
     1.0000   1.0000   1.0000   1.0000   1.0000   1.0000   1.0000   1.0000
     1.0000   1.0000   1.0000   1.0000   1.0000   1.0000   1.0000   1.0000

          k =-0.5000 0.1443 0.2356 (  3894 PWs)   bands (ev):

   -66.8704 -66.8699 -33.8802 -33.8772 -33.8556 -33.8518 -33.8501 -33.8465
   -10.7603 -10.6696   1.5399   1.7760   3.1568   3.4827   3.7539   4.0390

     occupation numbers 
     1.0000   1.0000   1.0000   1.0000   1.0000   1.0000   1.0000   1.0000
     1.0000   1.0000   1.0000   1.0000   1.0000   1.0000   1.0000   1.0000

          k =-0.5000 0.1443-0.3141 (  3888 PWs)   bands (ev):

   -66.8702 -66.8701 -33.8795 -33.8794 -33.8534 -33.8534 -33.8478 -33.8478
   -10.7144 -10.7137   1.6120   1.6123   3.3199   3.3202   3.9501   3.9502

     occupation numbers 
     1.0000   1.0000   1.0000   1.0000   1.0000   1.0000   1.0000   1.0000
     1.0000   1.0000   1.0000   1.0000   1.0000   1.0000   1.0000   1.0000

          k =-0.5000 0.1443-0.2356 (  3894 PWs)   bands (ev):

   -66.8704 -66.8699 -33.8802 -33.8772 -33.8556 -33.8518 -33.8501 -33.8465
   -10.7603 -10.6696   1.5399   1.7760   3.1568   3.4826   3.7539   4.0390

     occupation numbers 
     1.0000   1.0000   1.0000   1.0000   1.0000   1.0000   1.0000   1.0000
     1.0000   1.0000   1.0000   1.0000   1.0000   1.0000   1.0000   1.0000

          k =-0.5000 0.1443-0.1570 (  3893 PWs)   bands (ev):

   -66.8705 -66.8697 -33.8792 -33.8739 -33.8581 -33.8540 -33.8495 -33.8466
   -10.8009 -10.6334   1.5518   2.0099   3.0120   3.4721   3.6647   3.9967

     occupation numbers 
     1.0000   1.0000   1.0000   1.0000   1.0000   1.0000   1.0000   1.0000
     1.0000   1.0000   1.0000   1.0000   1.0000   1.0000   1.0000   1.0000

          k =-0.5000 0.1443-0.0785 (  3895 PWs)   bands (ev):

   -66.8707 -66.8696 -33.8772 -33.8709 -33.8611 -33.8560 -33.8491 -33.8470
   -10.8287 -10.6100   1.6078   2.2595   2.8709   3.3029   3.7350   3.8882

     occupation numbers 
     1.0000   1.0000   1.0000   1.0000   1.0000   1.0000   1.0000   1.0000
     1.0000   1.0000   1.0000   1.0000   1.0000   1.0000   1.0000   1.0000

          k =-0.5000-0.8660-0.0000 (  3904 PWs)   bands (ev):

   -66.8707 -66.8695 -33.8782 -33.8712 -33.8631 -33.8548 -33.8493 -33.8447
   -10.8322 -10.6063   1.4767   2.2822   2.8090   3.4525   3.6741   4.0817

     occupation numbers 
     1.0000   1.0000   1.0000   1.0000   1.0000   1.0000   1.0000   1.0000
     1.0000   1.0000   1.0000   1.0000   1.0000   1.0000   1.0000   1.0000

          k =-0.5000-0.8660 0.0785 (  3896 PWs)   bands (ev):

   -66.8707 -66.8696 -33.8793 -33.8725 -33.8611 -33.8544 -33.8488 -33.8451
   -10.8227 -10.6139   1.4395   2.1614   2.9162   3.4742   3.7518   4.0551

     occupation numbers 
     1.0000   1.0000   1.0000   1.0000   1.0000   1.0000   1.0000   1.0000
     1.0000   1.0000   1.0000   1.0000   1.0000   1.0000   1.0000   1.0000

          k =-0.5000-0.8660 0.1570 (  3906 PWs)   bands (ev):

   -66.8705 -66.8697 -33.8813 -33.8756 -33.8570 -33.8533 -33.8479 -33.8462
   -10.7960 -10.6361   1.3800   1.9037   3.1764   3.5368   3.8712   3.9808

     occupation numbers 
     1.0000   1.0000   1.0000   1.0000   1.0000   1.0000   1.0000   1.0000
     1.0000   1.0000   1.0000   1.0000   1.0000   1.0000   1.0000   1.0000

          k =-0.5000-0.8660 0.2356 (  3896 PWs)   bands (ev):

   -66.8704 -66.8699 -33.8821 -33.8790 -33.8527 -33.8517 -33.8480 -33.8478
   -10.7571 -10.6704   1.3747   1.6472   3.4829   3.6330   3.8729   3.8843

     occupation numbers 
     1.0000   1.0000   1.0000   1.0000   1.0000   1.0000   1.0000   1.0000
     1.0000   1.0000   1.0000   1.0000   1.0000   1.0000   1.0000   1.0000

          k =-0.5000-0.8660-0.3141 (  3892 PWs)   bands (ev):

   -66.8702 -66.8701 -33.8814 -33.8813 -33.8498 -33.8497 -33.8496 -33.8496
   -10.7131 -10.7124   1.4620   1.4623   3.7433   3.7437   3.7502   3.7509

     occupation numbers 
     1.0000   1.0000   1.0000   1.0000   1.0000   1.0000   1.0000   1.0000
     1.0000   1.0000   1.0000   1.0000   1.0000   1.0000   1.0000   1.0000

     highest occupied level (ev):     4.3499

!    total energy              =    -315.17799312 Ry
     Harris-Foulkes estimate   =    -315.17799229 Ry
     estimated scf accuracy    <       0.00000071 Ry

     The total energy is the sum of the following terms:

     one-electron contribution =    -213.66193491 Ry
     hartree contribution      =     112.99457179 Ry
     xc contribution           =     -48.05382193 Ry
     ewald contribution        =    -166.45680807 Ry

     convergence has been achieved in   6 iterations

     Forces acting on atoms (cartesian axes, Ry/au):

     atom    1 type  2   force =    -0.00000013    0.00000037   -0.00870875
     atom    2 type  2   force =    -0.00000028   -0.00000035   -0.00870425
     atom    3 type  1   force =     0.00000069    0.00000087    0.00869200
     atom    4 type  1   force =    -0.00000028   -0.00000088    0.00872099
     The non-local contrib.  to forces
     atom    1 type  2   force =    -0.00000021   -0.00000046   -0.00454641
     atom    2 type  2   force =    -0.00000072    0.00000146   -0.00454712
     atom    3 type  1   force =    -0.00000021   -0.00000205    0.03585962
     atom    4 type  1   force =     0.00000076   -0.00000093    0.03585962
     The ionic contribution  to forces
     atom    1 type  2   force =    -0.00000659    0.00002105   -0.19291018
     atom    2 type  2   force =     0.00000151    0.00000004   -0.19290955
     atom    3 type  1   force =    -0.00000118   -0.00001339    0.19290907
     atom    4 type  1   force =     0.00000626   -0.00000770    0.19291065
     The local contribution  to forces
     atom    1 type  2   force =     0.00000651   -0.00002158    0.18848648
     atom    2 type  2   force =     0.00000051   -0.00000038    0.18843038
     atom    3 type  1   force =     0.00000168    0.00001444   -0.21986922
     atom    4 type  1   force =    -0.00000552    0.00000776   -0.21996014
     The core correction contribution to forces
     atom    1 type  2   force =     0.00000001   -0.00000002    0.00016476
     atom    2 type  2   force =     0.00000001   -0.00000001    0.00016468
     atom    3 type  1   force =     0.00000000    0.00000000    0.00000000
     atom    4 type  1   force =     0.00000000    0.00000000    0.00000000
     The Hubbard contrib.    to forces
     atom    1 type  2   force =     0.00000000    0.00000000    0.00000000
     atom    2 type  2   force =     0.00000000    0.00000000    0.00000000
     atom    3 type  1   force =     0.00000000    0.00000000    0.00000000
     atom    4 type  1   force =     0.00000000    0.00000000    0.00000000
     The SCF correction term to forces
     atom    1 type  2   force =     0.00000000    0.00000000    0.00000000
     atom    2 type  2   force =     0.00000000    0.00000000    0.00000000
     atom    3 type  1   force =     0.00000000    0.00000000    0.00000000
     atom    4 type  1   force =     0.00000000    0.00000000    0.00000000

     Total force =     0.000000     Total SCF correction =     0.000000


     Computing stress (Cartesian axis) and pressure

          total   stress  (Ry/bohr**3)                   (kbar)     P=    4.95
   0.00003325  -0.00000000   0.00000001          4.89     -0.00      0.00
  -0.00000000   0.00003325   0.00000001         -0.00      4.89      0.00
   0.00000001   0.00000001   0.00003435          0.00      0.00      5.05

     kinetic stress (kbar)  18888.25      0.00     -0.00
                                0.00  18888.25     -0.00
                               -0.00     -0.00  18886.10

     local   stress (kbar)  -7949.74     -0.02      0.02
                               -0.02  -7949.76     -0.04
                                0.02     -0.04 -10972.58

     nonloc. stress (kbar)   5177.68     -0.00     -0.00
                               -0.00   5177.68      0.00
                               -0.00      0.00   5177.32

     hartree stress (kbar)  16776.26      0.01     -0.01
                                0.01  16776.27      0.02
                               -0.01      0.02  18095.07

     exc-cor stress (kbar)  -6710.12      0.00     -0.00
                                0.00  -6710.12      0.00
                               -0.00      0.00  -6709.61

     corecor stress (kbar)   -247.33     -0.00      0.00
                               -0.00   -247.33     -0.00
                                0.00     -0.00   -247.32

     ewald   stress (kbar) -25930.11      0.01     -0.01
                                0.01 -25930.10      0.03
                               -0.01      0.03 -24223.93

     hubbard stress (kbar)      0.00      0.00      0.00
                                0.00      0.00      0.00
                                0.00      0.00      0.00

     london  stress (kbar)      0.00      0.00      0.00
                                0.00      0.00      0.00
                                0.00      0.00      0.00

     DFT-D3  stress (kbar)      0.00      0.00      0.00
                                0.00      0.00      0.00
                                0.00      0.00      0.00

     XDM     stress (kbar)      0.00      0.00      0.00
                                0.00      0.00      0.00
                                0.00      0.00      0.00

     dft-nl  stress (kbar)      0.00      0.00      0.00
                                0.00      0.00      0.00
                                0.00      0.00      0.00

     TS-vdW  stress (kbar)      0.00      0.00      0.00
                                0.00      0.00      0.00
                                0.00      0.00      0.00



     Writing output data file ZnO.save/
 
     init_run     :      0.34s CPU      0.61s WALL (       1 calls)
     electrons    :      3.81s CPU      4.20s WALL (       1 calls)
     forces       :      0.13s CPU      0.14s WALL (       1 calls)
     stress       :      0.24s CPU      0.25s WALL (       1 calls)

     Called by init_run:
     wfcinit      :      0.20s CPU      0.29s WALL (       1 calls)
     wfcinit:atom :      0.00s CPU      0.00s WALL (      65 calls)
     wfcinit:wfcr :      0.19s CPU      0.27s WALL (      65 calls)
     potinit      :      0.05s CPU      0.08s WALL (       1 calls)
     hinit0       :      0.07s CPU      0.17s WALL (       1 calls)

     Called by electrons:
     c_bands      :      3.14s CPU      3.45s WALL (       6 calls)
     sum_band     :      0.46s CPU      0.49s WALL (       6 calls)
     v_of_rho     :      0.19s CPU      0.21s WALL (       7 calls)
     v_h          :      0.00s CPU      0.00s WALL (       7 calls)
     v_xc         :      0.24s CPU      0.26s WALL (       9 calls)
     newd         :      0.03s CPU      0.05s WALL (       7 calls)
     mix_rho      :      0.00s CPU      0.02s WALL (       6 calls)

     Called by c_bands:
     init_us_2    :      0.07s CPU      0.07s WALL (     975 calls)
     cegterg      :      2.85s CPU      3.02s WALL (     390 calls)

     Called by sum_band:
     sum_band:bec :      0.00s CPU      0.01s WALL (     390 calls)
     addusdens    :      0.03s CPU      0.03s WALL (       6 calls)

     Called by *egterg:
     h_psi        :      1.78s CPU      1.86s WALL (    1299 calls)
     s_psi        :      0.07s CPU      0.07s WALL (    1299 calls)
     g_psi        :      0.00s CPU      0.00s WALL (     844 calls)
     cdiaghg      :      0.70s CPU      0.83s WALL (    1234 calls)
     cegterg:over :      0.23s CPU      0.27s WALL (     844 calls)
     cegterg:upda :      0.10s CPU      0.10s WALL (     844 calls)
     cegterg:last :      0.05s CPU      0.05s WALL (     390 calls)
     cdiaghg:chol :      0.04s CPU      0.06s WALL (    1234 calls)
     cdiaghg:inve :      0.02s CPU      0.02s WALL (    1234 calls)
     cdiaghg:para :      0.07s CPU      0.08s WALL (    2468 calls)

     Called by h_psi:
     h_psi:pot    :      1.77s CPU      1.85s WALL (    1299 calls)
     h_psi:calbec :      0.12s CPU      0.13s WALL (    1299 calls)
     vloc_psi     :      1.58s CPU      1.64s WALL (    1299 calls)
     add_vuspsi   :      0.07s CPU      0.07s WALL (    1299 calls)

     General routines
     calbec       :      0.19s CPU      0.21s WALL (    2014 calls)
     fft          :      0.03s CPU      0.07s WALL (     114 calls)
     ffts         :      0.00s CPU      0.00s WALL (      13 calls)
     fftw         :      1.81s CPU      1.88s WALL (   38582 calls)
     interpolate  :      0.00s CPU      0.01s WALL (       7 calls)
 
     Parallel routines
     fft_scatt_xy :      0.26s CPU      0.27s WALL (   38709 calls)
     fft_scatt_yz :      0.95s CPU      1.00s WALL (   38709 calls)
 
     PWSCF        :      5.06s CPU      6.39s WALL

 
   This run was terminated on:  20:48:45  15Jun2022            

=------------------------------------------------------------------------------=
   JOB DONE.
=------------------------------------------------------------------------------=
