
     Program PWSCF v.6.4.1 starts on  8Nov2021 at 21:53: 3 

     This program is part of the open-source Quantum ESPRESSO suite
     for quantum simulation of materials; please cite
         "P. Giannozzi et al., J. Phys.:Condens. Matter 21 395502 (2009);
         "P. Giannozzi et al., J. Phys.:Condens. Matter 29 465901 (2017);
          URL http://www.quantum-espresso.org", 
     in publications or presentations arising from this work. More details at
     http://www.quantum-espresso.org/quote

     Parallel version (MPI), running on   128 processors

     MPI processes distributed on     2 nodes
     K-points division:     npool     =       8
     R & G space division:  proc/nbgrp/npool/nimage =      16
     Waiting for input...
     Reading input from standard input
Warning: card &IONS ignored
Warning: card   UPSCALE           = 100.D0, ignored
Warning: card / ignored
Warning: card &CELL ignored
Warning: card   CELL_DYNAMICS     = 'BFGS' ignored
Warning: card   PRESS_CONV_THR    = 0.5D0 ignored
Warning: card   CELL_DOFREE = 'ALL' ignored
Warning: card / ignored

     Current dimensions of program PWSCF are:
     Max number of different atomic species (ntypx) = 10
     Max number of k-points (npk) =  40000
     Max angular momentum in pseudopotentials (lmaxx) =  3

     Subspace diagonalization in iterative solution of the eigenvalue problem:
     one sub-group per band group will be used
     scalapack distributed-memory algorithm (size of sub-group:  2*  2 procs)

 
     Parallelization info
     --------------------
     sticks:   dense  smooth     PW     G-vecs:    dense   smooth      PW
     Min         817     390    107                64685    21493    3093
     Max         819     391    108                64687    21495    3096
     Sum       13081    6245   1723              1034981   343899   49525
 


     bravais-lattice index     =            0
     lattice parameter (alat)  =      19.4735  a.u.
     unit-cell volume          =    5482.1528 (a.u.)^3
     number of atoms/cell      =           72
     number of atomic types    =            3
     number of electrons       =       876.00
     number of Kohn-Sham states=          526
     kinetic-energy cutoff     =      60.0000  Ry
     charge density cutoff     =     500.0000  Ry
     convergence threshold     =      1.0E-08
     mixing beta               =       0.5000
     number of iterations used =            8  plain     mixing
     Exchange-correlation      = SLA  PW   PSX  PSC ( 1  4 10  8 0 0)
     Using LIBXC version       =    4   3   4

     celldm(1)=  19.473450  celldm(2)=   0.000000  celldm(3)=   0.000000
     celldm(4)=   0.000000  celldm(5)=   0.000000  celldm(6)=   0.000000

     crystal axes: (cart. coord. in units of alat)
               a(1) = (   1.000000   0.000006   0.000001 )  
               a(2) = (  -0.499994   0.865986  -0.000032 )  
               a(3) = (  -0.000000  -0.000037   0.857255 )  

     reciprocal axes: (cart. coord. in units 2 pi/alat)
               b(1) = (  0.999997  0.577367  0.000025 )  
               b(2) = ( -0.000007  1.154750  0.000049 )  
               b(3) = ( -0.000001  0.000043  1.166514 )  


     PseudoPot. # 1 for Zn read from file:
     ./GBRV_PBEsol/zn_pbesol_v1.uspp.F.UPF
     MD5 check sum: 7d8615e52efe7c1e2b1899de8658bae2
     Pseudo is Ultrasoft, Zval = 20.0
     Generated by new atomic code, or converted to UPF format
     Using radial grid of  943 points,  6 beta functions with: 
                l(1) =   0
                l(2) =   0
                l(3) =   1
                l(4) =   1
                l(5) =   2
                l(6) =   2
     Q(r) pseudized with  8 coefficients,  rinner =    1.100   1.100   1.100
                                                       1.100   1.100

     PseudoPot. # 2 for O  read from file:
     ./GBRV_PBEsol/o_pbesol_v1.2.uspp.F.UPF
     MD5 check sum: 501638753501ef6325af9037351f7734
     Pseudo is Ultrasoft + core correction, Zval =  6.0
     Generated by new atomic code, or converted to UPF format
     Using radial grid of  737 points,  5 beta functions with: 
                l(1) =   0
                l(2) =   0
                l(3) =   1
                l(4) =   1
                l(5) =   2
     Q(r) pseudized with  8 coefficients,  rinner =    0.900   0.900   0.900
                                                       0.900   0.900

     PseudoPot. # 3 for Mg read from file:
     ./GBRV_PBEsol/mg_pbesol_v1.4.uspp.F.UPF
     MD5 check sum: 4059f37963cf5867752dbf5ab2400678
     Pseudo is Ultrasoft, Zval = 10.0
     Generated by new atomic code, or converted to UPF format
     Using radial grid of  821 points,  7 beta functions with: 
                l(1) =   0
                l(2) =   0
                l(3) =   0
                l(4) =   1
                l(5) =   1
                l(6) =   2
                l(7) =   2
     Q(r) pseudized with  8 coefficients,  rinner =    1.200   1.200   1.200
                                                       1.200   1.200

     atomic species   valence    mass     pseudopotential
        Zn            20.00    65.38000     Zn( 1.00)
        O              6.00    15.99900     O ( 1.00)
        Mg            10.00    24.30500     Mg( 1.00)

     No symmetry found


                                    s                        frac. trans.

      isym =  1     identity                                     

 cryst.   s( 1) = (     1          0          0      )
                  (     0          1          0      )
                  (     0          0          1      )

 cart.    s( 1) = (  1.0000000  0.0000000 -0.0000000 )
                  (  0.0000000  1.0000000 -0.0000000 )
                  ( -0.0000000 -0.0000000  1.0000000 )


   Cartesian axes

     site n.     atom                  positions (alat units)
         1           Mg  tau(   1) = (   0.0001651   0.7698905   0.4327582  )
         2           Mg  tau(   2) = (   0.4996864   0.6724450   0.6440402  )
         3           Mg  tau(   3) = (   0.8329849   0.0963274   0.6459970  )
         4           Mg  tau(   4) = (   0.0008491   0.3849423   0.6473828  )
         5           Mg  tau(   5) = (   0.3326658   0.7685989   0.0032700  )
         6           Mg  tau(   6) = (  -0.3322964   0.7697073   0.0033643  )
         7           O   tau(   7) = (   0.5003574   0.6741647   0.0008700  )
         8           O   tau(   8) = (   0.8332357   0.0957931   0.0013447  )
         9           O   tau(   9) = (   0.0000999   0.3848274   0.0019469  )
        10           O   tau(  10) = (   0.4996328   0.0955171   0.0025102  )
        11           O   tau(  11) = (  -0.1660521   0.6735075   0.0028772  )
        12           O   tau(  12) = (   0.1664333   0.0963368   0.0029549  )
        13           O   tau(  13) = (   0.1660578   0.6733433   0.0030737  )
        14           O   tau(  14) = (   0.6667537   0.3852545   0.0032843  )
        15           O   tau(  15) = (   0.3335156   0.3851677   0.0033788  )
        16           O   tau(  16) = (   0.3335131   0.7698376   0.2148699  )
        17           O   tau(  17) = (  -0.3332116   0.7696882   0.2154121  )
        18           O   tau(  18) = (   0.6665404   0.1923271   0.2170139  )
        19           O   tau(  19) = (  -0.0004246   0.1926286   0.2170972  )
        20           O   tau(  20) = (   0.5001028   0.4812382   0.2171115  )
        21           O   tau(  21) = (   0.1665463   0.4807999   0.2173530  )
        22           O   tau(  22) = (  -0.1663655   0.4808295   0.2173731  )
        23           O   tau(  23) = (   0.3333336   0.1924484   0.2176205  )
        24           O   tau(  24) = (   0.0000680   0.7698835   0.2192474  )
        25           O   tau(  25) = (  -0.1668867   0.6736684   0.4311689  )
        26           O   tau(  26) = (   0.1666993   0.0957459   0.4311976  )
        27           O   tau(  27) = (   0.1672263   0.6737738   0.4311873  )
        28           O   tau(  28) = (   0.5000549   0.6735798   0.4316915  )
        29           O   tau(  29) = (   0.6666554   0.3848133   0.4317466  )
        30           O   tau(  30) = (   0.4998199   0.0963030   0.4317639  )
        31           O   tau(  31) = (   0.3335140   0.3847963   0.4319216  )
        32           O   tau(  32) = (   0.8327499   0.0958588   0.4320721  )
        33           O   tau(  33) = (   0.0002237   0.3853420   0.4327723  )
        34           O   tau(  34) = (   0.0003772   0.7695235   0.6440364  )
        35           O   tau(  35) = (  -0.0004120   0.1925547   0.6446409  )
        36           O   tau(  36) = (  -0.1667572   0.4807950   0.6455231  )
        37           O   tau(  37) = (   0.6665343   0.1926443   0.6458597  )
        38           O   tau(  38) = (   0.4999698   0.4807639   0.6458959  )
        39           O   tau(  39) = (   0.1672798   0.4812747   0.6459824  )
        40           O   tau(  40) = (   0.3326447   0.1925302   0.6462282  )
        41           O   tau(  41) = (  -0.3338505   0.7695767   0.6473007  )
        42           O   tau(  42) = (   0.3341392   0.7700859   0.6473689  )
        43           Zn  tau(  43) = (   0.5002024   0.6732371   0.2148735  )
        44           Zn  tau(  44) = (   0.8331669   0.0968194   0.2154375  )
        45           Zn  tau(  45) = (  -0.0000198   0.3848003   0.2170064  )
        46           Zn  tau(  46) = (   0.4998210   0.0962383   0.2171011  )
        47           Zn  tau(  47) = (  -0.1660493   0.6730294   0.2171040  )
        48           Zn  tau(  48) = (   0.1662351   0.6731792   0.2173459  )
        49           Zn  tau(  49) = (   0.1664224   0.0968798   0.2173874  )
        50           Zn  tau(  50) = (   0.6669632   0.3848283   0.2176137  )
        51           Zn  tau(  51) = (   0.3333738   0.3847662   0.2192617  )
        52           Zn  tau(  52) = (   0.3331973   0.7694102   0.4311657  )
        53           Zn  tau(  53) = (  -0.3329344   0.7694263   0.4311726  )
        54           Zn  tau(  54) = (   0.5003316   0.4805398   0.4311946  )
        55           Zn  tau(  55) = (  -0.0001065   0.1924743   0.4317088  )
        56           Zn  tau(  56) = (   0.6655944   0.1927748   0.4317537  )
        57           Zn  tau(  57) = (   0.1673278   0.4816560   0.4317495  )
        58           Zn  tau(  58) = (  -0.1672691   0.4813233   0.4319178  )
        59           Zn  tau(  59) = (   0.3337187   0.1922992   0.4320682  )
        60           Zn  tau(  60) = (  -0.1675560   0.6732636   0.6446232  )
        61           Zn  tau(  61) = (   0.1686646   0.6732673   0.6455162  )
        62           Zn  tau(  62) = (   0.4997288   0.0974279   0.6458631  )
        63           Zn  tau(  63) = (   0.1659065   0.0962993   0.6459099  )
        64           Zn  tau(  64) = (   0.3338984   0.3850955   0.6462211  )
        65           Zn  tau(  65) = (   0.6657911   0.3848309   0.6473155  )
        66           Zn  tau(  66) = (   0.0000228   0.7685350   0.0008663  )
        67           Zn  tau(  67) = (   0.0002351   0.1922533   0.0013406  )
        68           Zn  tau(  68) = (  -0.1665356   0.4818311   0.0019432  )
        69           Zn  tau(  69) = (   0.6663795   0.1927640   0.0025067  )
        70           Zn  tau(  70) = (   0.1670419   0.4815084   0.0028845  )
        71           Zn  tau(  71) = (   0.4998605   0.4818960   0.0029409  )
        72           Zn  tau(  72) = (   0.3326339   0.1929097   0.0030915  )

   Crystallographic axes

     site n.     atom                  positions (cryst. coord.)
         1           Mg  tau(   1) = (  0.4446856  0.8890520  0.5048513  )
         2           Mg  tau(   2) = (  0.8879487  0.7765339  0.7513101  )
         3           Mg  tau(   3) = (  0.8886147  0.1112604  0.7535677  )
         4           Mg  tau(   4) = (  0.2231184  0.4445438  0.7551974  )
         5           Mg  tau(   5) = (  0.7764287  0.8875373  0.0038471  )
         6           Mg  tau(   6) = (  0.1121087  0.8888215  0.0039577  )
         7           O   tau(   7) = (  0.8895965  0.7784882  0.0010434  )
         8           O   tau(   8) = (  0.8885408  0.1106116  0.0015721  )
         9           O   tau(   9) = (  0.2222867  0.4443794  0.0022876  )
        10           O   tau(  10) = (  0.5547797  0.1102952  0.0029319  )
        11           O   tau(  11) = (  0.2228097  0.7777337  0.0033853  )
        12           O   tau(  12) = (  0.2220545  0.1112439  0.0034509  )
        13           O   tau(  13) = (  0.5548238  0.7775419  0.0036143  )
        14           O   tau(  14) = (  0.8891850  0.4448683  0.0038472  )
        15           O   tau(  15) = (  0.5558979  0.4447702  0.0039577  )
        16           O   tau(  16) = (  0.7779965  0.8889780  0.2506814  )
        17           O   tau(  17) = (  0.1111877  0.8888098  0.2513143  )
        18           O   tau(  18) = (  0.7775870  0.2220959  0.2531574  )
        19           O   tau(  19) = (  0.1107983  0.2224484  0.2532550  )
        20           O   tau(  20) = (  0.7779578  0.5557170  0.2532838  )
        21           O   tau(  21) = (  0.4441494  0.5552131  0.2535657  )
        22           O   tau(  22) = (  0.1112557  0.5552494  0.2535894  )
        23           O   tau(  23) = (  0.4444514  0.2222382  0.2538653  )
        24           O   tau(  24) = (  0.4445791  0.8890334  0.2557880  )
        25           O   tau(  25) = (  0.2220788  0.7779406  0.5029933  )
        26           O   tau(  26) = (  0.2219901  0.1105826  0.5030019  )
        27           O   tau(  27) = (  0.5562516  0.7780601  0.5030146  )
        28           O   tau(  28) = (  0.8889670  0.7778339  0.5036025  )
        29           O   tau(  29) = (  0.8888427  0.4443799  0.5036542  )
        30           O   tau(  30) = (  0.5554313  0.1112238  0.5036622  )
        31           O   tau(  31) = (  0.5556926  0.4443625  0.5038587  )
        32           O   tau(  32) = (  0.8881038  0.1107087  0.5040214  )
        33           O   tau(  33) = (  0.2227184  0.4449949  0.5048513  )
        34           O   tau(  34) = (  0.4446911  0.8886386  0.7513101  )
        35           O   tau(  35) = (  0.1107790  0.2223842  0.7519906  )
        36           O   tau(  36) = (  0.1108549  0.5552307  0.7530322  )
        37           O   tau(  37) = (  0.7777749  0.2224834  0.7534119  )
        38           O   tau(  38) = (  0.7775617  0.5551904  0.7534665  )
        39           O   tau(  39) = (  0.4451677  0.5557824  0.7535677  )
        40           O   tau(  40) = (  0.4438205  0.2223538  0.7538419  )
        41           O   tau(  41) = (  0.1104952  0.8887023  0.7551183  )
        42           O   tau(  42) = (  0.7787768  0.8892860  0.7551974  )
        43           Zn  tau(  43) = (  0.8889113  0.7774276  0.2506814  )
        44           Zn  tau(  44) = (  0.8890700  0.1118073  0.2513143  )
        45           Zn  tau(  45) = (  0.2221568  0.4443587  0.2531574  )
        46           Zn  tau(  46) = (  0.5553897  0.1111385  0.2532551  )
        47           Zn  tau(  47) = (  0.2225419  0.7771922  0.2532838  )
        48           Zn  tau(  48) = (  0.5549117  0.7773630  0.2535657  )
        49           Zn  tau(  49) = (  0.2223625  0.1118816  0.2535894  )
        50           Zn  tau(  50) = (  0.8891538  0.4443867  0.2538653  )
        51           Zn  tau(  51) = (  0.5555297  0.4443172  0.2557880  )
        52           Zn  tau(  52) = (  0.7774394  0.8884951  0.5029933  )
        53           Zn  tau(  53) = (  0.1113191  0.8885181  0.5030019  )
        54           Zn  tau(  54) = (  0.7777887  0.5549210  0.5030146  )
        55           Zn  tau(  55) = (  0.1110327  0.2222808  0.5036024  )
        56           Zn  tau(  56) = (  0.7769049  0.2226235  0.5036543  )
        57           Zn  tau(  57) = (  0.4454306  0.5562122  0.5036621  )
        58           Zn  tau(  58) = (  0.1106426  0.5558302  0.5038587  )
        59           Zn  tau(  59) = (  0.4447557  0.2220764  0.5040213  )
        60           Zn  tau(  60) = (  0.2211811  0.7774836  0.7519906  )
        61           Zn  tau(  61) = (  0.5574028  0.7774858  0.7530321  )
        62           Zn  tau(  62) = (  0.5559950  0.1125333  0.7534118  )
        63           Zn  tau(  63) = (  0.2215223  0.1112323  0.7534666  )
        64           Zn  tau(  64) = (  0.5562550  0.4447184  0.7538419  )
        65           Zn  tau(  65) = (  0.8879939  0.4444108  0.7551182  )
        66           Zn  tau(  66) = (  0.4437498  0.8874655  0.0010435  )
        67           Zn  tau(  67) = (  0.1112359  0.2220045  0.0015721  )
        68           Zn  tau(  68) = (  0.1116585  0.5563955  0.0022876  )
        69           Zn  tau(  69) = (  0.7776731  0.2225900  0.0029318  )
        70           Zn  tau(  70) = (  0.4450487  0.5560207  0.0033853  )
        71           Zn  tau(  71) = (  0.7780900  0.5564660  0.0034509  )
        72           Zn  tau(  72) = (  0.4440126  0.2227604  0.0036143  )

     number of k points=    36  Marzari-Vanderbilt smearing, width (Ry)=  0.0010
                       cart. coord. in units 2pi/alat
        k(    1) = (   0.0000000   0.0000000   0.0000000), wk =   0.0312500
        k(    2) = (  -0.0000002   0.0000107   0.2916284), wk =   0.0625000
        k(    3) = (   0.0000004  -0.0000214  -0.5832568), wk =   0.0312500
        k(    4) = (  -0.0000016   0.2886874   0.0000123), wk =   0.0625000
        k(    5) = (  -0.0000018   0.2886981   0.2916407), wk =   0.0625000
        k(    6) = (  -0.0000013   0.2886660  -0.5832445), wk =   0.0625000
        k(    7) = (  -0.0000015   0.2886767  -0.2916161), wk =   0.0625000
        k(    8) = (   0.0000033  -0.5773748  -0.0000246), wk =   0.0312500
        k(    9) = (   0.0000031  -0.5773641   0.2916038), wk =   0.0625000
        k(   10) = (   0.0000037  -0.5773962  -0.5832814), wk =   0.0312500
        k(   11) = (   0.2499992   0.1443418   0.0000063), wk =   0.0625000
        k(   12) = (   0.2499990   0.1443525   0.2916347), wk =   0.0625000
        k(   13) = (   0.2499996   0.1443204  -0.5832505), wk =   0.0625000
        k(   14) = (   0.2499994   0.1443311  -0.2916221), wk =   0.0625000
        k(   15) = (   0.2499975   0.4330292   0.0000186), wk =   0.0625000
        k(   16) = (   0.2499974   0.4330399   0.2916470), wk =   0.0625000
        k(   17) = (   0.2499979   0.4330078  -0.5832382), wk =   0.0625000
        k(   18) = (   0.2499977   0.4330185  -0.2916098), wk =   0.0625000
        k(   19) = (   0.2500025  -0.4330330  -0.0000183), wk =   0.0625000
        k(   20) = (   0.2500023  -0.4330222   0.2916101), wk =   0.0625000
        k(   21) = (   0.2500028  -0.4330544  -0.5832751), wk =   0.0625000
        k(   22) = (   0.2500026  -0.4330437  -0.2916467), wk =   0.0625000
        k(   23) = (   0.2500008  -0.1443456  -0.0000060), wk =   0.0625000
        k(   24) = (   0.2500006  -0.1443348   0.2916224), wk =   0.0625000
        k(   25) = (   0.2500012  -0.1443670  -0.5832628), wk =   0.0625000
        k(   26) = (   0.2500010  -0.1443563  -0.2916344), wk =   0.0625000
        k(   27) = (  -0.4999984  -0.2886837  -0.0000125), wk =   0.0312500
        k(   28) = (  -0.4999985  -0.2886729   0.2916158), wk =   0.0625000
        k(   29) = (  -0.4999980  -0.2887051  -0.5832693), wk =   0.0312500
        k(   30) = (  -0.5000000   0.0000037  -0.0000002), wk =   0.0625000
        k(   31) = (  -0.5000002   0.0000145   0.2916281), wk =   0.0625000
        k(   32) = (  -0.4999996  -0.0000177  -0.5832570), wk =   0.0625000
        k(   33) = (  -0.4999998  -0.0000070  -0.2916286), wk =   0.0625000
        k(   34) = (  -0.4999951  -0.8660584  -0.0000371), wk =   0.0312500
        k(   35) = (  -0.4999953  -0.8660477   0.2915912), wk =   0.0625000
        k(   36) = (  -0.4999947  -0.8660799  -0.5832939), wk =   0.0312500

                       cryst. coord.
        k(    1) = (   0.0000000   0.0000000   0.0000000), wk =   0.0312500
        k(    2) = (  -0.0000000  -0.0000000   0.2500000), wk =   0.0625000
        k(    3) = (   0.0000000   0.0000000  -0.5000000), wk =   0.0312500
        k(    4) = (   0.0000000   0.2500000  -0.0000000), wk =   0.0625000
        k(    5) = (   0.0000000   0.2500000   0.2500000), wk =   0.0625000
        k(    6) = (   0.0000000   0.2500000  -0.5000000), wk =   0.0625000
        k(    7) = (   0.0000000   0.2500000  -0.2500000), wk =   0.0625000
        k(    8) = (  -0.0000000  -0.5000000   0.0000000), wk =   0.0312500
        k(    9) = (  -0.0000000  -0.5000000   0.2500000), wk =   0.0625000
        k(   10) = (  -0.0000000  -0.5000000  -0.5000000), wk =   0.0312500
        k(   11) = (   0.2500000   0.0000000  -0.0000000), wk =   0.0625000
        k(   12) = (   0.2500000   0.0000000   0.2500000), wk =   0.0625000
        k(   13) = (   0.2500000   0.0000000  -0.5000000), wk =   0.0625000
        k(   14) = (   0.2500000  -0.0000000  -0.2500000), wk =   0.0625000
        k(   15) = (   0.2500000   0.2500000  -0.0000000), wk =   0.0625000
        k(   16) = (   0.2500000   0.2500000   0.2500000), wk =   0.0625000
        k(   17) = (   0.2500000   0.2500000  -0.5000000), wk =   0.0625000
        k(   18) = (   0.2500000   0.2500000  -0.2500000), wk =   0.0625000
        k(   19) = (   0.2500000  -0.5000000  -0.0000000), wk =   0.0625000
        k(   20) = (   0.2500000  -0.5000000   0.2500000), wk =   0.0625000
        k(   21) = (   0.2500000  -0.5000000  -0.5000000), wk =   0.0625000
        k(   22) = (   0.2500000  -0.5000000  -0.2500000), wk =   0.0625000
        k(   23) = (   0.2500000  -0.2500000  -0.0000000), wk =   0.0625000
        k(   24) = (   0.2500000  -0.2500000   0.2500000), wk =   0.0625000
        k(   25) = (   0.2500000  -0.2500000  -0.5000000), wk =   0.0625000
        k(   26) = (   0.2500000  -0.2500000  -0.2500000), wk =   0.0625000
        k(   27) = (  -0.5000000  -0.0000000   0.0000000), wk =   0.0312500
        k(   28) = (  -0.5000000  -0.0000000   0.2500000), wk =   0.0625000
        k(   29) = (  -0.5000000  -0.0000000  -0.5000000), wk =   0.0312500
        k(   30) = (  -0.5000000   0.2500000   0.0000000), wk =   0.0625000
        k(   31) = (  -0.5000000   0.2500000   0.2500000), wk =   0.0625000
        k(   32) = (  -0.5000000   0.2500000  -0.5000000), wk =   0.0625000
        k(   33) = (  -0.5000000   0.2500000  -0.2500000), wk =   0.0625000
        k(   34) = (  -0.5000000  -0.5000000   0.0000000), wk =   0.0312500
        k(   35) = (  -0.5000000  -0.5000000   0.2500000), wk =   0.0625000
        k(   36) = (  -0.5000000  -0.5000000  -0.5000000), wk =   0.0312500

     Dense  grid:  1034981 G-vectors     FFT dimensions: ( 144, 144, 120)

     Smooth grid:   343899 G-vectors     FFT dimensions: ( 100, 100,  90)

     Dynamical RAM for                 wfc:      21.58 MB

     Dynamical RAM for     wfc (w. buffer):     129.49 MB

     Dynamical RAM for           str. fact:       2.96 MB

     Dynamical RAM for           local pot:       0.00 MB

     Dynamical RAM for          nlocal pot:      46.04 MB

     Dynamical RAM for                qrad:      22.22 MB

     Dynamical RAM for          rho,v,vnew:       6.76 MB

     Dynamical RAM for               rhoin:       2.25 MB

     Dynamical RAM for            rho*nmix:      15.79 MB

     Dynamical RAM for           G-vectors:       3.87 MB

     Dynamical RAM for          h,s,v(r/c):      50.66 MB

     Dynamical RAM for          <psi|beta>:       9.01 MB

     Dynamical RAM for                 psi:      86.33 MB

     Dynamical RAM for                hpsi:      86.33 MB

     Dynamical RAM for                spsi:      86.33 MB

     Dynamical RAM for      wfcinit/wfcrot:      53.57 MB

     Dynamical RAM for           addusdens:      30.60 MB

     Dynamical RAM for          addusforce:      52.50 MB

     Dynamical RAM for         addusstress:      27.57 MB

     Estimated static dynamical RAM per process >     239.65 MB

     Estimated max dynamical RAM per process >     558.31 MB

     Estimated total dynamical RAM >      69.79 GB

     Check: negative core charge=   -0.000002

     Initial potential from superposition of free atoms

     starting charge  874.19467, renormalised to  876.00000
     Starting wfcs are  564 randomized atomic wfcs

     total cpu time spent up to now is       24.0 secs

     Self-consistent Calculation

     iteration #  1     ecut=    60.00 Ry     beta= 0.50
     Davidson diagonalization with overlap
     ethr =  1.00E-02,  avg # of iterations =  4.8

     total cpu time spent up to now is       95.9 secs

     total energy              =  -15745.15860478 Ry
     Harris-Foulkes estimate   =  -15756.05250039 Ry
     estimated scf accuracy    <      16.65662388 Ry

     iteration #  2     ecut=    60.00 Ry     beta= 0.50
     Davidson diagonalization with overlap
     ethr =  1.90E-03,  avg # of iterations =  4.0

     total cpu time spent up to now is      188.8 secs

     total energy              =  -15749.92495469 Ry
     Harris-Foulkes estimate   =  -15753.52961207 Ry
     estimated scf accuracy    <       8.20920118 Ry

     iteration #  3     ecut=    60.00 Ry     beta= 0.50
     Davidson diagonalization with overlap
     ethr =  9.37E-04,  avg # of iterations =  3.3

     total cpu time spent up to now is      256.7 secs

     total energy              =  -15751.43695521 Ry
     Harris-Foulkes estimate   =  -15751.52198748 Ry
     estimated scf accuracy    <       0.21076871 Ry

     iteration #  4     ecut=    60.00 Ry     beta= 0.50
     Davidson diagonalization with overlap
     ethr =  2.41E-05,  avg # of iterations =  5.4

     total cpu time spent up to now is      354.1 secs

     total energy              =  -15751.46122964 Ry
     Harris-Foulkes estimate   =  -15751.49722683 Ry
     estimated scf accuracy    <       0.10462449 Ry

     iteration #  5     ecut=    60.00 Ry     beta= 0.50
     Davidson diagonalization with overlap
     ethr =  1.19E-05,  avg # of iterations =  5.4

     total cpu time spent up to now is      437.6 secs

     total energy              =  -15751.47584884 Ry
     Harris-Foulkes estimate   =  -15751.47730409 Ry
     estimated scf accuracy    <       0.00450229 Ry

     iteration #  6     ecut=    60.00 Ry     beta= 0.50
     Davidson diagonalization with overlap
     ethr =  5.14E-07,  avg # of iterations =  2.4

     total cpu time spent up to now is      509.7 secs

     total energy              =  -15751.47663274 Ry
     Harris-Foulkes estimate   =  -15751.47689436 Ry
     estimated scf accuracy    <       0.00069165 Ry

     iteration #  7     ecut=    60.00 Ry     beta= 0.50
     Davidson diagonalization with overlap
     ethr =  7.90E-08,  avg # of iterations =  2.0

     total cpu time spent up to now is      555.5 secs

     total energy              =  -15751.47677762 Ry
     Harris-Foulkes estimate   =  -15751.47680577 Ry
     estimated scf accuracy    <       0.00012549 Ry

     iteration #  8     ecut=    60.00 Ry     beta= 0.50
     Davidson diagonalization with overlap
     ethr =  1.43E-08,  avg # of iterations =  2.0

     total cpu time spent up to now is      600.6 secs

     total energy              =  -15751.47680327 Ry
     Harris-Foulkes estimate   =  -15751.47680231 Ry
     estimated scf accuracy    <       0.00001802 Ry

     iteration #  9     ecut=    60.00 Ry     beta= 0.50
     Davidson diagonalization with overlap
     ethr =  2.06E-09,  avg # of iterations =  2.0

     total cpu time spent up to now is      654.8 secs

     total energy              =  -15751.47680644 Ry
     Harris-Foulkes estimate   =  -15751.47680722 Ry
     estimated scf accuracy    <       0.00000312 Ry

     iteration # 10     ecut=    60.00 Ry     beta= 0.50
     Davidson diagonalization with overlap
     ethr =  3.56E-10,  avg # of iterations =  2.0

     total cpu time spent up to now is      700.0 secs

     total energy              =  -15751.47680696 Ry
     Harris-Foulkes estimate   =  -15751.47680705 Ry
     estimated scf accuracy    <       0.00000046 Ry

     iteration # 11     ecut=    60.00 Ry     beta= 0.50
     Davidson diagonalization with overlap
     ethr =  5.20E-11,  avg # of iterations =  2.0

     total cpu time spent up to now is      745.4 secs

     total energy              =  -15751.47680705 Ry
     Harris-Foulkes estimate   =  -15751.47680705 Ry
     estimated scf accuracy    <       0.00000004 Ry

     iteration # 12     ecut=    60.00 Ry     beta= 0.50
     Davidson diagonalization with overlap
     ethr =  4.37E-12,  avg # of iterations =  2.0

     total cpu time spent up to now is      798.8 secs

     End of self-consistent calculation

          k = 0.0000 0.0000 0.0000 ( 43057 PWs)   bands (ev):

  -114.2335-114.2213-114.2185-114.2165-114.2131-114.2127-114.2120-114.2067
  -114.2043-114.2041-114.2037-114.2031-114.1980-114.1963-114.1918-114.1908
  -114.1877-114.1874-114.1872-114.1867-114.1814-114.1779-114.1764-114.1764
  -114.1754-114.1671-114.1665-114.1592-114.1487-114.1461 -68.5987 -68.5914
   -68.5898 -68.5884 -68.5855 -68.5834 -68.5810 -68.5789 -68.5786 -68.5784
   -68.5766 -68.5753 -68.5750 -68.5731 -68.5730 -68.5709 -68.5705 -68.5701
   -68.5691 -68.5691 -68.5686 -68.5678 -68.5673 -68.5672 -68.5660 -68.5654
   -68.5650 -68.5642 -68.5630 -68.5625 -68.5616 -68.5612 -68.5609 -68.5606
   -68.5590 -68.5587 -68.5583 -68.5579 -68.5577 -68.5574 -68.5555 -68.5547
   -68.5539 -68.5534 -68.5531 -68.5524 -68.5493 -68.5490 -68.5483 -68.5476
   -68.5474 -68.5473 -68.5471 -68.5456 -68.5448 -68.5444 -68.5443 -68.5442
   -68.5438 -68.5431 -68.5428 -68.5424 -68.5420 -68.5411 -68.5381 -68.5378
   -68.5368 -68.5349 -68.5346 -68.5342 -68.5335 -68.5332 -68.5328 -68.5322
   -68.5319 -68.5296 -68.5293 -68.5281 -68.5244 -68.5230 -68.5207 -68.5176
   -68.5175 -68.5159 -68.5149 -68.5119 -68.5051 -68.5029 -68.5016 -68.4977
   -63.8228 -63.8157 -63.8014 -63.7960 -63.7916 -63.7821 -30.8094 -30.8051
   -30.8029 -30.8025 -30.7972 -30.7952 -30.7932 -30.7918 -30.7870 -30.7844
   -30.7769 -30.7756 -30.7732 -30.7693 -30.7677 -30.7652 -30.7600 -30.7582
    -9.1134  -8.6577  -8.6351  -8.6262  -8.5989  -8.5816  -8.5721  -8.4612
    -8.4413  -8.2366  -8.2297  -8.2219  -8.2100  -8.1949  -8.1846  -8.1803
    -8.1644  -8.1538  -8.1505  -8.1463  -8.1336  -8.1304  -8.1086  -8.0908
    -8.0510  -8.0066  -7.9876  -7.9552  -7.9394  -7.8600  -7.8552  -7.8345
    -7.8090  -7.7639  -7.7427  -7.6664   2.5835   2.5894   2.6006   2.6148
     2.6394   2.6487   2.6848   2.6914   2.7343   2.7474   2.7598   2.7659
     2.8284   2.8782   2.9255   2.9440   2.9559   2.9812   3.0164   3.0476
     3.0544   3.0573   3.0961   3.1248   3.1472   3.1574   3.2353   3.2495
     3.3186   3.3290   3.3564   3.3674   3.4006   3.4095   3.4201   3.4274
     3.4282   3.4288   3.4409   3.4551   3.4668   3.4753   3.4822   3.4858
     3.4880   3.4921   3.4971   3.5004   3.5059   3.5087   3.5178   3.5228
     3.5286   3.5574   3.5652   3.5819   3.5978   3.6011   3.6066   3.6081
     3.6124   3.6134   3.6284   3.6333   3.6568   3.6646   3.6706   3.6914
     3.7048   3.7230   3.7437   3.7604   3.7755   3.7925   3.8181   3.8224
     3.8299   3.8503   3.8696   3.8858   3.8963   3.9170   3.9190   3.9312
     3.9397   3.9518   3.9593   3.9883   4.0015   4.0244   4.0280   4.0407
     4.0589   4.0650   4.0762   4.0917   4.1001   4.1126   4.1169   4.1425
     4.1806   4.1904   4.2165   4.2413   4.2519   4.2594   4.2695   4.2771
     4.2840   4.2941   4.3205   4.3418   4.3496   4.3655   4.3960   4.4193
     4.4442   4.4557   4.4624   4.4829   4.5052   4.5098   4.5267   4.5333
     4.5427   4.5612   4.5735   4.5804   4.5827   4.5890   4.6027   4.6058
     4.6128   4.6299   4.6330   4.6520   4.6625   4.6646   4.6768   4.6829
     4.6969   4.6979   4.7114   4.7161   4.7460   4.7503   4.7656   4.7754
     4.7768   4.8014   4.8176   4.8353   4.9626   5.1294   5.2290   5.2434
     5.2739   5.3115   5.3532   5.3975   5.4102   5.4591   5.4620   5.4760
     5.5090   5.5672   5.6043   5.6397   5.6489   5.6633   5.6863   5.7143
     5.7245   5.7465   5.7650   5.7857   5.7984   5.8014   5.8089   5.8241
     5.8401   5.8502   5.8578   5.8716   5.8894   5.9209   5.9310   5.9522
     6.0167   6.2234   6.2370   6.2766   6.3718   6.4187   6.4479   6.5188
     6.5759   6.5794   6.5977   6.5989   6.6164   6.6454   6.6618   6.6811
     6.7570   6.7768   6.7943   6.8035   6.8255   7.1469   7.1703   7.2032
     7.2449   7.2575   7.2742   7.3236   7.3374   7.3451   7.3545   7.3655
     7.4053   7.5240   7.5328   7.5544   7.5860   7.6034   7.6240   7.6980
     7.7490   7.7746   7.8335   7.8578   7.8943   7.9068   7.9226   7.9377
     7.9896   8.0276   8.0425   8.0800   8.1729   8.2437   8.2684   8.2958
     8.3096   8.3186   8.4741   8.4911   8.5035   8.5106   8.5135   8.5185
     8.6508   8.6610   8.7745   8.8499   8.8523   8.9083  10.0452  13.2066
    13.2669  13.2775  13.3172  13.3529  13.4107  13.4390  13.6071  14.1285
    14.5209  14.5266  14.5466  14.5707  14.5780  14.5868  14.6000  14.6103
    14.6478  14.6814  14.7405  14.7830  15.6658  15.6884  15.8379  15.9853
    16.0124  16.1517  16.3708  16.4026  16.4055  16.4967  16.5833  16.6662
    16.9534  16.9724  16.9881  16.9923  17.0092  17.0745  17.0965  17.1336
    17.1822  17.1943  17.2544  17.2596  17.2934  17.3520  17.8591  17.8659
    17.8813  17.8834  17.8864  17.8890  17.8958  17.9039  17.9074  17.9138
    18.2805  18.3997  18.4335  18.4797  18.4923  18.5879  18.6347  18.7403
    18.8882  18.9878  19.0723  19.4839  19.5664  19.5760  19.7202  20.1529
    20.1597  20.2412  20.2440  20.2888  20.3129  20.3282  20.3444  20.3447
    20.3542  20.3863  20.4021  20.4130  20.4184  20.4636

     occupation numbers 
     1.0000   1.0000   1.0000   1.0000   1.0000   1.0000   1.0000   1.0000
     1.0000   1.0000   1.0000   1.0000   1.0000   1.0000   1.0000   1.0000
     1.0000   1.0000   1.0000   1.0000   1.0000   1.0000   1.0000   1.0000
     1.0000   1.0000   1.0000   1.0000   1.0000   1.0000   1.0000   1.0000
     1.0000   1.0000   1.0000   1.0000   1.0000   1.0000   1.0000   1.0000
     1.0000   1.0000   1.0000   1.0000   1.0000   1.0000   1.0000   1.0000
     1.0000   1.0000   1.0000   1.0000   1.0000   1.0000   1.0000   1.0000
     1.0000   1.0000   1.0000   1.0000   1.0000   1.0000   1.0000   1.0000
     1.0000   1.0000   1.0000   1.0000   1.0000   1.0000   1.0000   1.0000
     1.0000   1.0000   1.0000   1.0000   1.0000   1.0000   1.0000   1.0000
     1.0000   1.0000   1.0000   1.0000   1.0000   1.0000   1.0000   1.0000
     1.0000   1.0000   1.0000   1.0000   1.0000   1.0000   1.0000   1.0000
     1.0000   1.0000   1.0000   1.0000   1.0000   1.0000   1.0000   1.0000
     1.0000   1.0000   1.0000   1.0000   1.0000   1.0000   1.0000   1.0000
     1.0000   1.0000   1.0000   1.0000   1.0000   1.0000   1.0000   1.0000
     1.0000   1.0000   1.0000   1.0000   1.0000   1.0000   1.0000   1.0000
     1.0000   1.0000   1.0000   1.0000   1.0000   1.0000   1.0000   1.0000
     1.0000   1.0000   1.0000   1.0000   1.0000   1.0000   1.0000   1.0000
     1.0000   1.0000   1.0000   1.0000   1.0000   1.0000   1.0000   1.0000
     1.0000   1.0000   1.0000   1.0000   1.0000   1.0000   1.0000   1.0000
     1.0000   1.0000   1.0000   1.0000   1.0000   1.0000   1.0000   1.0000
     1.0000   1.0000   1.0000   1.0000   1.0000   1.0000   1.0000   1.0000
     1.0000   1.0000   1.0000   1.0000   1.0000   1.0000   1.0000   1.0000
     1.0000   1.0000   1.0000   1.0000   1.0000   1.0000   1.0000   1.0000
     1.0000   1.0000   1.0000   1.0000   1.0000   1.0000   1.0000   1.0000
     1.0000   1.0000   1.0000   1.0000   1.0000   1.0000   1.0000   1.0000
     1.0000   1.0000   1.0000   1.0000   1.0000   1.0000   1.0000   1.0000
     1.0000   1.0000   1.0000   1.0000   1.0000   1.0000   1.0000   1.0000
     1.0000   1.0000   1.0000   1.0000   1.0000   1.0000   1.0000   1.0000
     1.0000   1.0000   1.0000   1.0000   1.0000   1.0000   1.0000   1.0000
     1.0000   1.0000   1.0000   1.0000   1.0000   1.0000   1.0000   1.0000
     1.0000   1.0000   1.0000   1.0000   1.0000   1.0000   1.0000   1.0000
     1.0000   1.0000   1.0000   1.0000   1.0000   1.0000   1.0000   1.0000
     1.0000   1.0000   1.0000   1.0000   1.0000   1.0000   1.0000   1.0000
     1.0000   1.0000   1.0000   1.0000   1.0000   1.0000   1.0000   1.0000
     1.0000   1.0000   1.0000   1.0000   1.0000   1.0000   1.0000   1.0000
     1.0000   1.0000   1.0000   1.0000   1.0000   1.0000   1.0000   1.0000
     1.0000   1.0000   1.0000   1.0000   1.0000   1.0000   1.0000   1.0000
     1.0000   1.0000   1.0000   1.0000   1.0000   1.0000   1.0000   1.0000
     1.0000   1.0000   1.0000   1.0000   1.0000   1.0000   1.0000   1.0000
     1.0000   1.0000   1.0000   1.0000   1.0000   1.0000   1.0000   1.0000
     1.0000   1.0000   1.0000   1.0000   1.0000   1.0000   1.0000   1.0000
     1.0000   1.0000   1.0000   1.0000   1.0000   1.0000   1.0000   1.0000
     1.0000   1.0000   1.0000   1.0000   1.0000   1.0000   1.0000   1.0000
     1.0000   1.0000   1.0000   1.0000   1.0000   1.0000   1.0000   1.0000
     1.0000   1.0000   1.0000   1.0000   1.0000   1.0000   1.0000   1.0000
     1.0000   1.0000   1.0000   1.0000   1.0000   1.0000   1.0000   1.0000
     1.0000   1.0000   1.0000   1.0000   1.0000   1.0000   1.0000   1.0000
     1.0000   1.0000   1.0000   1.0000   1.0000   1.0000   1.0000   1.0000
     1.0000   1.0000   1.0000   1.0000   1.0000   1.0000   1.0000   1.0000
     1.0000   1.0000   1.0000   1.0000   1.0000   1.0000   1.0000   1.0000
     1.0000   1.0000   1.0000   1.0000   1.0000   1.0000   1.0000   1.0000
     1.0000   1.0000   1.0000   1.0000   1.0000   1.0000   1.0000   1.0000
     1.0000   1.0000   1.0000   1.0000   1.0000   1.0000   1.0000   1.0000
     1.0000   1.0000   1.0000   1.0000   1.0000   1.0000   0.0000   0.0000
     0.0000   0.0000   0.0000   0.0000   0.0000   0.0000   0.0000   0.0000
     0.0000   0.0000   0.0000   0.0000   0.0000   0.0000   0.0000   0.0000
     0.0000   0.0000   0.0000   0.0000   0.0000   0.0000   0.0000   0.0000
     0.0000   0.0000   0.0000   0.0000   0.0000   0.0000   0.0000   0.0000
     0.0000   0.0000   0.0000   0.0000   0.0000   0.0000   0.0000   0.0000
     0.0000   0.0000   0.0000   0.0000   0.0000   0.0000   0.0000   0.0000
     0.0000   0.0000   0.0000   0.0000   0.0000   0.0000   0.0000   0.0000
     0.0000   0.0000   0.0000   0.0000   0.0000   0.0000   0.0000   0.0000
     0.0000   0.0000   0.0000   0.0000   0.0000   0.0000   0.0000   0.0000
     0.0000   0.0000   0.0000   0.0000   0.0000   0.0000   0.0000   0.0000
     0.0000   0.0000   0.0000   0.0000   0.0000   0.0000

          k =-0.0000 0.0000 0.2916 ( 42971 PWs)   bands (ev):

  -114.2335-114.2213-114.2185-114.2165-114.2131-114.2127-114.2120-114.2067
  -114.2043-114.2041-114.2037-114.2031-114.1980-114.1963-114.1918-114.1908
  -114.1877-114.1874-114.1872-114.1867-114.1814-114.1779-114.1764-114.1764
  -114.1754-114.1671-114.1665-114.1592-114.1487-114.1461 -68.5987 -68.5914
   -68.5898 -68.5884 -68.5855 -68.5834 -68.5810 -68.5789 -68.5786 -68.5784
   -68.5766 -68.5753 -68.5750 -68.5731 -68.5730 -68.5709 -68.5705 -68.5701
   -68.5691 -68.5691 -68.5686 -68.5678 -68.5673 -68.5672 -68.5660 -68.5654
   -68.5650 -68.5643 -68.5630 -68.5625 -68.5616 -68.5612 -68.5609 -68.5606
   -68.5590 -68.5587 -68.5583 -68.5579 -68.5577 -68.5574 -68.5555 -68.5547
   -68.5539 -68.5534 -68.5531 -68.5524 -68.5493 -68.5490 -68.5483 -68.5476
   -68.5474 -68.5473 -68.5471 -68.5456 -68.5448 -68.5444 -68.5443 -68.5442
   -68.5438 -68.5431 -68.5428 -68.5424 -68.5420 -68.5411 -68.5381 -68.5378
   -68.5368 -68.5349 -68.5346 -68.5342 -68.5335 -68.5332 -68.5328 -68.5322
   -68.5319 -68.5296 -68.5293 -68.5281 -68.5244 -68.5230 -68.5207 -68.5176
   -68.5175 -68.5159 -68.5149 -68.5119 -68.5051 -68.5029 -68.5016 -68.4977
   -63.8228 -63.8157 -63.8014 -63.7960 -63.7916 -63.7821 -30.8094 -30.8051
   -30.8029 -30.8025 -30.7972 -30.7952 -30.7932 -30.7918 -30.7870 -30.7844
   -30.7769 -30.7756 -30.7732 -30.7693 -30.7677 -30.7652 -30.7600 -30.7582
    -9.0666  -8.7152  -8.6215  -8.6025  -8.5917  -8.5591  -8.5468  -8.5337
    -8.3761  -8.3515  -8.3383  -8.3123  -8.2890  -8.2693  -8.2062  -8.1495
    -8.1441  -8.1191  -8.1100  -8.0861  -8.0767  -8.0538  -8.0393  -8.0248
    -8.0105  -7.9941  -7.9770  -7.9545  -7.9374  -7.8778  -7.8721  -7.8497
    -7.8335  -7.7750  -7.7533  -7.6776   2.6146   2.6204   2.6571   2.6736
     2.6994   2.7309   2.7650   2.7863   2.8129   2.8251   2.8452   2.8726
     2.8979   2.9042   2.9337   2.9457   2.9770   2.9976   3.0276   3.0530
     3.0577   3.0738   3.0941   3.1251   3.1478   3.1603   3.2289   3.2413
     3.2845   3.2898   3.2980   3.3436   3.3557   3.3619   3.3856   3.3985
     3.4147   3.4366   3.4426   3.4569   3.4753   3.4773   3.4837   3.4892
     3.4977   3.4994   3.5077   3.5106   3.5141   3.5246   3.5286   3.5383
     3.5416   3.5524   3.5570   3.5664   3.5704   3.5782   3.5911   3.6011
     3.6053   3.6065   3.6122   3.6155   3.6284   3.6375   3.6485   3.6590
     3.6685   3.6765   3.6970   3.7017   3.7254   3.7336   3.7529   3.7654
     3.7746   3.7847   3.8054   3.8122   3.8264   3.8443   3.8483   3.8826
     3.9037   3.9159   3.9332   3.9461   3.9659   3.9762   3.9878   4.0049
     4.0189   4.0496   4.0647   4.0733   4.0930   4.1022   4.1454   4.1552
     4.1863   4.2134   4.2380   4.2509   4.2671   4.2776   4.2875   4.2923
     4.2941   4.3068   4.3368   4.3425   4.3551   4.3719   4.3909   4.4225
     4.4452   4.4543   4.4583   4.4776   4.4856   4.4970   4.5044   4.5121
     4.5320   4.5454   4.5560   4.5706   4.5926   4.5990   4.6099   4.6208
     4.6286   4.6397   4.6444   4.6471   4.6555   4.6638   4.6720   4.6816
     4.6949   4.7094   4.7278   4.7461   4.7573   4.7758   4.7773   4.7844
     4.7950   4.7998   4.8112   4.8227   5.0814   5.1191   5.2065   5.2333
     5.2476   5.2648   5.2911   5.3213   5.3555   5.3711   5.4160   5.4403
     5.4590   5.4827   5.5083   5.5175   5.5333   5.5424   5.5645   5.5909
     5.6404   5.6545   5.6767   5.7159   5.7463   5.7870   5.8295   5.8497
     5.8795   5.9723   6.0159   6.0292   6.0664   6.0807   6.1638   6.1849
     6.2462   6.2716   6.3082   6.3601   6.4015   6.4401   6.4472   6.4995
     6.5416   6.5507   6.5641   6.5970   6.6187   6.6467   6.7018   6.7241
     6.8736   6.9570   6.9855   7.0171   7.0592   7.0819   7.1009   7.1438
     7.1710   7.2228   7.2373   7.4046   7.4382   7.4821   7.5252   7.5392
     7.5596   7.5925   7.6211   7.6463   7.6912   7.7105   7.7240   7.7635
     7.7985   7.8112   7.8232   7.8507   7.8741   7.8796   7.8920   7.9021
     7.9119   7.9224   7.9474   7.9653   7.9930   7.9969   8.1441   8.1525
     8.3303   8.3501   8.4128   8.4228   8.4630   8.5061   8.6110   8.6209
     8.6288   8.6525   8.6642   8.6778   8.6854   8.6982  10.4943  12.4513
    13.3140  13.3244  13.3820  13.4237  13.4629  13.4767  13.8815  13.9160
    13.9348  13.9787  14.0280  14.0842  14.1878  14.4113  15.2212  15.2343
    15.2634  15.2842  15.3216  15.3255  15.7389  15.7565  15.8890  16.0321
    16.0583  16.1680  16.4079  16.4324  16.4466  16.5216  16.5811  16.6511
    16.7352  16.7379  16.8989  16.9568  16.9638  17.0258  17.0595  17.1488
    17.1797  17.2108  17.2819  17.3145  17.3266  17.3431  17.5276  17.6148
    17.6564  17.7407  17.7571  17.8004  17.9277  17.9512  17.9549  18.0225
    18.0381  18.0672  18.1484  18.2327  18.2610  18.3062  18.3299  18.3754
    18.7841  18.8902  19.0844  19.4946  19.5210  19.6145  19.7199  19.8299
    20.0681  20.0760  20.1570  20.1831  20.2117  20.2206  20.2547  20.2889
    20.3786  20.3806  20.4685  20.5518  20.6136  20.6986

     occupation numbers 
     1.0000   1.0000   1.0000   1.0000   1.0000   1.0000   1.0000   1.0000
     1.0000   1.0000   1.0000   1.0000   1.0000   1.0000   1.0000   1.0000
     1.0000   1.0000   1.0000   1.0000   1.0000   1.0000   1.0000   1.0000
     1.0000   1.0000   1.0000   1.0000   1.0000   1.0000   1.0000   1.0000
     1.0000   1.0000   1.0000   1.0000   1.0000   1.0000   1.0000   1.0000
     1.0000   1.0000   1.0000   1.0000   1.0000   1.0000   1.0000   1.0000
     1.0000   1.0000   1.0000   1.0000   1.0000   1.0000   1.0000   1.0000
     1.0000   1.0000   1.0000   1.0000   1.0000   1.0000   1.0000   1.0000
     1.0000   1.0000   1.0000   1.0000   1.0000   1.0000   1.0000   1.0000
     1.0000   1.0000   1.0000   1.0000   1.0000   1.0000   1.0000   1.0000
     1.0000   1.0000   1.0000   1.0000   1.0000   1.0000   1.0000   1.0000
     1.0000   1.0000   1.0000   1.0000   1.0000   1.0000   1.0000   1.0000
     1.0000   1.0000   1.0000   1.0000   1.0000   1.0000   1.0000   1.0000
     1.0000   1.0000   1.0000   1.0000   1.0000   1.0000   1.0000   1.0000
     1.0000   1.0000   1.0000   1.0000   1.0000   1.0000   1.0000   1.0000
     1.0000   1.0000   1.0000   1.0000   1.0000   1.0000   1.0000   1.0000
     1.0000   1.0000   1.0000   1.0000   1.0000   1.0000   1.0000   1.0000
     1.0000   1.0000   1.0000   1.0000   1.0000   1.0000   1.0000   1.0000
     1.0000   1.0000   1.0000   1.0000   1.0000   1.0000   1.0000   1.0000
     1.0000   1.0000   1.0000   1.0000   1.0000   1.0000   1.0000   1.0000
     1.0000   1.0000   1.0000   1.0000   1.0000   1.0000   1.0000   1.0000
     1.0000   1.0000   1.0000   1.0000   1.0000   1.0000   1.0000   1.0000
     1.0000   1.0000   1.0000   1.0000   1.0000   1.0000   1.0000   1.0000
     1.0000   1.0000   1.0000   1.0000   1.0000   1.0000   1.0000   1.0000
     1.0000   1.0000   1.0000   1.0000   1.0000   1.0000   1.0000   1.0000
     1.0000   1.0000   1.0000   1.0000   1.0000   1.0000   1.0000   1.0000
     1.0000   1.0000   1.0000   1.0000   1.0000   1.0000   1.0000   1.0000
     1.0000   1.0000   1.0000   1.0000   1.0000   1.0000   1.0000   1.0000
     1.0000   1.0000   1.0000   1.0000   1.0000   1.0000   1.0000   1.0000
     1.0000   1.0000   1.0000   1.0000   1.0000   1.0000   1.0000   1.0000
     1.0000   1.0000   1.0000   1.0000   1.0000   1.0000   1.0000   1.0000
     1.0000   1.0000   1.0000   1.0000   1.0000   1.0000   1.0000   1.0000
     1.0000   1.0000   1.0000   1.0000   1.0000   1.0000   1.0000   1.0000
     1.0000   1.0000   1.0000   1.0000   1.0000   1.0000   1.0000   1.0000
     1.0000   1.0000   1.0000   1.0000   1.0000   1.0000   1.0000   1.0000
     1.0000   1.0000   1.0000   1.0000   1.0000   1.0000   1.0000   1.0000
     1.0000   1.0000   1.0000   1.0000   1.0000   1.0000   1.0000   1.0000
     1.0000   1.0000   1.0000   1.0000   1.0000   1.0000   1.0000   1.0000
     1.0000   1.0000   1.0000   1.0000   1.0000   1.0000   1.0000   1.0000
     1.0000   1.0000   1.0000   1.0000   1.0000   1.0000   1.0000   1.0000
     1.0000   1.0000   1.0000   1.0000   1.0000   1.0000   1.0000   1.0000
     1.0000   1.0000   1.0000   1.0000   1.0000   1.0000   1.0000   1.0000
     1.0000   1.0000   1.0000   1.0000   1.0000   1.0000   1.0000   1.0000
     1.0000   1.0000   1.0000   1.0000   1.0000   1.0000   1.0000   1.0000
     1.0000   1.0000   1.0000   1.0000   1.0000   1.0000   1.0000   1.0000
     1.0000   1.0000   1.0000   1.0000   1.0000   1.0000   1.0000   1.0000
     1.0000   1.0000   1.0000   1.0000   1.0000   1.0000   1.0000   1.0000
     1.0000   1.0000   1.0000   1.0000   1.0000   1.0000   1.0000   1.0000
     1.0000   1.0000   1.0000   1.0000   1.0000   1.0000   1.0000   1.0000
     1.0000   1.0000   1.0000   1.0000   1.0000   1.0000   1.0000   1.0000
     1.0000   1.0000   1.0000   1.0000   1.0000   1.0000   1.0000   1.0000
     1.0000   1.0000   1.0000   1.0000   1.0000   1.0000   1.0000   1.0000
     1.0000   1.0000   1.0000   1.0000   1.0000   1.0000   1.0000   1.0000
     1.0000   1.0000   1.0000   1.0000   1.0000   1.0000   1.0000   1.0000
     1.0000   1.0000   1.0000   1.0000   1.0000   1.0000   0.0000   0.0000
     0.0000   0.0000   0.0000   0.0000   0.0000   0.0000   0.0000   0.0000
     0.0000   0.0000   0.0000   0.0000   0.0000   0.0000   0.0000   0.0000
     0.0000   0.0000   0.0000   0.0000   0.0000   0.0000   0.0000   0.0000
     0.0000   0.0000   0.0000   0.0000   0.0000   0.0000   0.0000   0.0000
     0.0000   0.0000   0.0000   0.0000   0.0000   0.0000   0.0000   0.0000
     0.0000   0.0000   0.0000   0.0000   0.0000   0.0000   0.0000   0.0000
     0.0000   0.0000   0.0000   0.0000   0.0000   0.0000   0.0000   0.0000
     0.0000   0.0000   0.0000   0.0000   0.0000   0.0000   0.0000   0.0000
     0.0000   0.0000   0.0000   0.0000   0.0000   0.0000   0.0000   0.0000
     0.0000   0.0000   0.0000   0.0000   0.0000   0.0000   0.0000   0.0000
     0.0000   0.0000   0.0000   0.0000   0.0000   0.0000

          k = 0.0000-0.0000-0.5833 ( 42906 PWs)   bands (ev):

  -114.2335-114.2213-114.2185-114.2165-114.2131-114.2127-114.2120-114.2067
  -114.2043-114.2041-114.2037-114.2031-114.1980-114.1963-114.1918-114.1908
  -114.1877-114.1874-114.1872-114.1867-114.1814-114.1779-114.1764-114.1764
  -114.1754-114.1671-114.1665-114.1592-114.1487-114.1461 -68.5987 -68.5914
   -68.5898 -68.5884 -68.5855 -68.5834 -68.5810 -68.5789 -68.5786 -68.5784
   -68.5766 -68.5753 -68.5750 -68.5731 -68.5730 -68.5709 -68.5705 -68.5701
   -68.5691 -68.5691 -68.5686 -68.5678 -68.5673 -68.5672 -68.5660 -68.5654
   -68.5650 -68.5643 -68.5630 -68.5625 -68.5616 -68.5612 -68.5609 -68.5606
   -68.5590 -68.5587 -68.5583 -68.5579 -68.5577 -68.5574 -68.5555 -68.5547
   -68.5539 -68.5534 -68.5532 -68.5523 -68.5493 -68.5490 -68.5483 -68.5476
   -68.5474 -68.5473 -68.5471 -68.5456 -68.5448 -68.5444 -68.5443 -68.5442
   -68.5438 -68.5431 -68.5428 -68.5424 -68.5420 -68.5411 -68.5381 -68.5378
   -68.5368 -68.5349 -68.5346 -68.5342 -68.5335 -68.5332 -68.5328 -68.5322
   -68.5319 -68.5296 -68.5293 -68.5281 -68.5244 -68.5230 -68.5207 -68.5176
   -68.5175 -68.5159 -68.5149 -68.5119 -68.5051 -68.5029 -68.5016 -68.4977
   -63.8228 -63.8157 -63.8014 -63.7960 -63.7916 -63.7821 -30.8094 -30.8051
   -30.8029 -30.8025 -30.7972 -30.7952 -30.7932 -30.7918 -30.7870 -30.7844
   -30.7769 -30.7756 -30.7732 -30.7693 -30.7677 -30.7652 -30.7600 -30.7582
    -8.9667  -8.8783  -8.5507  -8.5445  -8.5319  -8.5086  -8.5026  -8.4850
    -8.4823  -8.4623  -8.4374  -8.4057  -8.3687  -8.3419  -8.1461  -8.1407
    -8.1063  -8.0925  -8.0684  -8.0553  -8.0501  -8.0263  -7.9989  -7.9802
    -7.9767  -7.9678  -7.9593  -7.9348  -7.9304  -7.9128  -7.8965  -7.8753
    -7.8673  -7.7883  -7.7660  -7.6899   2.7331   2.7473   2.7532   2.7651
     2.7770   2.7835   2.8000   2.8094   2.8393   2.8610   2.8845   2.9221
     3.0075   3.0148   3.0259   3.0296   3.0381   3.0548   3.0598   3.0736
     3.0785   3.0880   3.1207   3.1485   3.1561   3.1669   3.1835   3.1916
     3.1969   3.2068   3.2237   3.2602   3.2818   3.2940   3.3350   3.3483
     3.3773   3.3824   3.3969   3.4300   3.4465   3.4644   3.4780   3.4844
     3.4872   3.4965   3.5035   3.5084   3.5097   3.5142   3.5184   3.5241
     3.5284   3.5347   3.5432   3.5542   3.5624   3.5650   3.5786   3.5849
     3.5981   3.6149   3.6224   3.6310   3.6381   3.6495   3.6520   3.6583
     3.6614   3.6639   3.6750   3.6804   3.6861   3.6986   3.7049   3.7068
     3.7167   3.7305   3.7536   3.7683   3.7724   3.7909   3.8107   3.8279
     3.8352   3.8429   3.8811   3.9109   3.9293   3.9343   3.9621   3.9678
     3.9827   4.0149   4.0391   4.0403   4.0658   4.0766   4.1447   4.1593
     4.1919   4.2420   4.2693   4.2772   4.2815   4.2978   4.3022   4.3138
     4.3173   4.3325   4.3374   4.3563   4.3664   4.3715   4.3876   4.4099
     4.4253   4.4335   4.4484   4.4552   4.4739   4.4860   4.4955   4.5213
     4.5284   4.5471   4.5548   4.5645   4.5742   4.5898   4.6132   4.6162
     4.6278   4.6402   4.6434   4.6545   4.6556   4.6731   4.6766   4.6819
     4.6932   4.7181   4.7430   4.7454   4.7557   4.7710   4.7754   4.7802
     4.7854   4.7927   4.9087   4.9585   5.0761   5.0789   5.1322   5.1991
     5.2343   5.2608   5.2728   5.2866   5.3136   5.3347   5.3612   5.3977
     5.4262   5.4325   5.4674   5.4702   5.4915   5.5124   5.5445   5.5714
     5.6338   5.6423   5.6921   5.7368   5.7555   5.7663   5.8002   5.8334
     5.8533   5.8675   5.9025   5.9316   6.0301   6.1140   6.1935   6.2251
     6.2844   6.2923   6.4099   6.4201   6.5169   6.5694   6.6487   6.6799
     6.6973   6.7214   6.7413   6.7777   6.7966   6.8140   6.8615   6.8700
     6.8844   6.8951   6.9251   6.9615   6.9867   7.0992   7.2131   7.2425
     7.2575   7.2758   7.2879   7.3074   7.3293   7.3490   7.5441   7.5847
     7.6086   7.6366   7.6648   7.6716   7.6941   7.7178   7.7302   7.7507
     7.7693   7.7768   7.7962   7.8179   7.8847   7.9238   7.9466   7.9523
     7.9776   8.0437   8.0504   8.0617   8.0838   8.0935   8.1475   8.2306
     8.2811   8.3308   8.3479   8.3923   8.4054   8.4173   8.4255   8.4288
     8.4370   8.4484   8.4964   8.5079   8.6264   8.6290  11.3698  11.4928
    13.4642  13.4747  13.5001  13.5097  13.5447  13.5523  13.5665  13.5893
    13.6337  13.6830  13.8016  13.8536  14.1854  14.4741  15.6734  15.6879
    15.6988  15.7115  15.7240  15.7380  15.7714  15.7949  15.8853  16.0258
    16.0408  16.1346  16.4694  16.4839  16.5081  16.5638  16.5792  16.6052
    16.6116  16.6767  16.6955  16.7442  16.7676  16.9285  17.1411  17.1721
    17.1781  17.1899  17.2129  17.2391  17.3161  17.4231  17.4286  17.5093
    17.5385  17.5926  17.6105  17.6302  17.6463  17.6680  17.6956  17.7332
    17.7544  17.7897  17.8923  17.9121  18.1641  18.4951  18.5945  18.6383
    18.6860  19.0017  19.0372  19.3454  19.3925  19.4537  19.5640  19.6492
    19.9064  19.9291  20.0289  20.0338  20.1559  20.1921  20.1961  20.3414
    20.5773  20.6208  20.6357  20.6578  20.6722  20.6934

     occupation numbers 
     1.0000   1.0000   1.0000   1.0000   1.0000   1.0000   1.0000   1.0000
     1.0000   1.0000   1.0000   1.0000   1.0000   1.0000   1.0000   1.0000
     1.0000   1.0000   1.0000   1.0000   1.0000   1.0000   1.0000   1.0000
     1.0000   1.0000   1.0000   1.0000   1.0000   1.0000   1.0000   1.0000
     1.0000   1.0000   1.0000   1.0000   1.0000   1.0000   1.0000   1.0000
     1.0000   1.0000   1.0000   1.0000   1.0000   1.0000   1.0000   1.0000
     1.0000   1.0000   1.0000   1.0000   1.0000   1.0000   1.0000   1.0000
     1.0000   1.0000   1.0000   1.0000   1.0000   1.0000   1.0000   1.0000
     1.0000   1.0000   1.0000   1.0000   1.0000   1.0000   1.0000   1.0000
     1.0000   1.0000   1.0000   1.0000   1.0000   1.0000   1.0000   1.0000
     1.0000   1.0000   1.0000   1.0000   1.0000   1.0000   1.0000   1.0000
     1.0000   1.0000   1.0000   1.0000   1.0000   1.0000   1.0000   1.0000
     1.0000   1.0000   1.0000   1.0000   1.0000   1.0000   1.0000   1.0000
     1.0000   1.0000   1.0000   1.0000   1.0000   1.0000   1.0000   1.0000
     1.0000   1.0000   1.0000   1.0000   1.0000   1.0000   1.0000   1.0000
     1.0000   1.0000   1.0000   1.0000   1.0000   1.0000   1.0000   1.0000
     1.0000   1.0000   1.0000   1.0000   1.0000   1.0000   1.0000   1.0000
     1.0000   1.0000   1.0000   1.0000   1.0000   1.0000   1.0000   1.0000
     1.0000   1.0000   1.0000   1.0000   1.0000   1.0000   1.0000   1.0000
     1.0000   1.0000   1.0000   1.0000   1.0000   1.0000   1.0000   1.0000
     1.0000   1.0000   1.0000   1.0000   1.0000   1.0000   1.0000   1.0000
     1.0000   1.0000   1.0000   1.0000   1.0000   1.0000   1.0000   1.0000
     1.0000   1.0000   1.0000   1.0000   1.0000   1.0000   1.0000   1.0000
     1.0000   1.0000   1.0000   1.0000   1.0000   1.0000   1.0000   1.0000
     1.0000   1.0000   1.0000   1.0000   1.0000   1.0000   1.0000   1.0000
     1.0000   1.0000   1.0000   1.0000   1.0000   1.0000   1.0000   1.0000
     1.0000   1.0000   1.0000   1.0000   1.0000   1.0000   1.0000   1.0000
     1.0000   1.0000   1.0000   1.0000   1.0000   1.0000   1.0000   1.0000
     1.0000   1.0000   1.0000   1.0000   1.0000   1.0000   1.0000   1.0000
     1.0000   1.0000   1.0000   1.0000   1.0000   1.0000   1.0000   1.0000
     1.0000   1.0000   1.0000   1.0000   1.0000   1.0000   1.0000   1.0000
     1.0000   1.0000   1.0000   1.0000   1.0000   1.0000   1.0000   1.0000
     1.0000   1.0000   1.0000   1.0000   1.0000   1.0000   1.0000   1.0000
     1.0000   1.0000   1.0000   1.0000   1.0000   1.0000   1.0000   1.0000
     1.0000   1.0000   1.0000   1.0000   1.0000   1.0000   1.0000   1.0000
     1.0000   1.0000   1.0000   1.0000   1.0000   1.0000   1.0000   1.0000
     1.0000   1.0000   1.0000   1.0000   1.0000   1.0000   1.0000   1.0000
     1.0000   1.0000   1.0000   1.0000   1.0000   1.0000   1.0000   1.0000
     1.0000   1.0000   1.0000   1.0000   1.0000   1.0000   1.0000   1.0000
     1.0000   1.0000   1.0000   1.0000   1.0000   1.0000   1.0000   1.0000
     1.0000   1.0000   1.0000   1.0000   1.0000   1.0000   1.0000   1.0000
     1.0000   1.0000   1.0000   1.0000   1.0000   1.0000   1.0000   1.0000
     1.0000   1.0000   1.0000   1.0000   1.0000   1.0000   1.0000   1.0000
     1.0000   1.0000   1.0000   1.0000   1.0000   1.0000   1.0000   1.0000
     1.0000   1.0000   1.0000   1.0000   1.0000   1.0000   1.0000   1.0000
     1.0000   1.0000   1.0000   1.0000   1.0000   1.0000   1.0000   1.0000
     1.0000   1.0000   1.0000   1.0000   1.0000   1.0000   1.0000   1.0000
     1.0000   1.0000   1.0000   1.0000   1.0000   1.0000   1.0000   1.0000
     1.0000   1.0000   1.0000   1.0000   1.0000   1.0000   1.0000   1.0000
     1.0000   1.0000   1.0000   1.0000   1.0000   1.0000   1.0000   1.0000
     1.0000   1.0000   1.0000   1.0000   1.0000   1.0000   1.0000   1.0000
     1.0000   1.0000   1.0000   1.0000   1.0000   1.0000   1.0000   1.0000
     1.0000   1.0000   1.0000   1.0000   1.0000   1.0000   1.0000   1.0000
     1.0000   1.0000   1.0000   1.0000   1.0000   1.0000   1.0000   1.0000
     1.0000   1.0000   1.0000   1.0000   1.0000   1.0000   0.0000   0.0000
     0.0000   0.0000   0.0000   0.0000   0.0000   0.0000   0.0000   0.0000
     0.0000   0.0000   0.0000   0.0000   0.0000   0.0000   0.0000   0.0000
     0.0000   0.0000   0.0000   0.0000   0.0000   0.0000   0.0000   0.0000
     0.0000   0.0000   0.0000   0.0000   0.0000   0.0000   0.0000   0.0000
     0.0000   0.0000   0.0000   0.0000   0.0000   0.0000   0.0000   0.0000
     0.0000   0.0000   0.0000   0.0000   0.0000   0.0000   0.0000   0.0000
     0.0000   0.0000   0.0000   0.0000   0.0000   0.0000   0.0000   0.0000
     0.0000   0.0000   0.0000   0.0000   0.0000   0.0000   0.0000   0.0000
     0.0000   0.0000   0.0000   0.0000   0.0000   0.0000   0.0000   0.0000
     0.0000   0.0000   0.0000   0.0000   0.0000   0.0000   0.0000   0.0000
     0.0000   0.0000   0.0000   0.0000   0.0000   0.0000

          k =-0.0000 0.2887 0.0000 ( 43023 PWs)   bands (ev):

  -114.2335-114.2213-114.2185-114.2165-114.2131-114.2127-114.2120-114.2067
  -114.2043-114.2041-114.2037-114.2031-114.1980-114.1963-114.1918-114.1908
  -114.1877-114.1874-114.1872-114.1867-114.1814-114.1779-114.1764-114.1764
  -114.1754-114.1671-114.1665-114.1592-114.1487-114.1461 -68.5987 -68.5914
   -68.5898 -68.5884 -68.5855 -68.5834 -68.5810 -68.5789 -68.5786 -68.5784
   -68.5766 -68.5753 -68.5750 -68.5731 -68.5730 -68.5709 -68.5705 -68.5701
   -68.5691 -68.5691 -68.5686 -68.5678 -68.5673 -68.5672 -68.5660 -68.5654
   -68.5650 -68.5642 -68.5630 -68.5625 -68.5616 -68.5612 -68.5609 -68.5606
   -68.5590 -68.5587 -68.5583 -68.5579 -68.5577 -68.5574 -68.5555 -68.5547
   -68.5539 -68.5534 -68.5531 -68.5524 -68.5493 -68.5490 -68.5483 -68.5476
   -68.5474 -68.5473 -68.5471 -68.5456 -68.5448 -68.5444 -68.5443 -68.5442
   -68.5438 -68.5431 -68.5428 -68.5424 -68.5420 -68.5411 -68.5381 -68.5378
   -68.5368 -68.5349 -68.5346 -68.5342 -68.5335 -68.5332 -68.5328 -68.5322
   -68.5319 -68.5296 -68.5293 -68.5281 -68.5244 -68.5230 -68.5207 -68.5176
   -68.5175 -68.5159 -68.5149 -68.5119 -68.5051 -68.5029 -68.5016 -68.4977
   -63.8228 -63.8157 -63.8014 -63.7960 -63.7916 -63.7821 -30.8094 -30.8051
   -30.8029 -30.8025 -30.7972 -30.7952 -30.7932 -30.7918 -30.7870 -30.7844
   -30.7769 -30.7756 -30.7732 -30.7693 -30.7677 -30.7652 -30.7600 -30.7582
    -9.0762  -8.7977  -8.6971  -8.6796  -8.5123  -8.5015  -8.4486  -8.4313
    -8.4132  -8.2946  -8.2808  -8.2499  -8.2401  -8.2333  -8.2181  -8.2061
    -8.1828  -8.1397  -8.1355  -8.1226  -8.1131  -8.0995  -8.0781  -8.0629
    -8.0470  -8.0150  -7.9855  -7.9409  -7.9337  -7.8768  -7.8598  -7.8429
    -7.8039  -7.7634  -7.7452  -7.6661   2.5764   2.5855   2.5968   2.6179
     2.6286   2.6571   2.6920   2.7184   2.7412   2.7525   2.7831   2.8123
     2.8285   2.8763   2.9194   2.9454   2.9777   3.0076   3.0196   3.0434
     3.0684   3.0868   3.0943   3.1255   3.1478   3.1677   3.2294   3.2437
     3.2843   3.2969   3.3233   3.3436   3.3556   3.3798   3.3874   3.3914
     3.4194   3.4275   3.4294   3.4326   3.4386   3.4429   3.4469   3.4611
     3.4700   3.4732   3.4846   3.4996   3.5018   3.5055   3.5168   3.5270
     3.5367   3.5466   3.5641   3.5761   3.5928   3.5951   3.5973   3.6116
     3.6251   3.6344   3.6427   3.6563   3.6627   3.6768   3.6869   3.7033
     3.7156   3.7278   3.7417   3.7519   3.7715   3.7953   3.8073   3.8154
     3.8209   3.8333   3.8621   3.8717   3.8834   3.8916   3.9140   3.9230
     3.9420   3.9480   3.9750   3.9852   4.0154   4.0233   4.0383   4.0465
     4.0520   4.0653   4.0739   4.0901   4.1009   4.1069   4.1353   4.1513
     4.2000   4.2122   4.2180   4.2332   4.2568   4.2621   4.2747   4.2836
     4.2960   4.3158   4.3331   4.3446   4.3663   4.3738   4.4202   4.4372
     4.4486   4.4626   4.4713   4.4835   4.5021   4.5107   4.5212   4.5341
     4.5414   4.5561   4.5707   4.5857   4.5882   4.5951   4.6062   4.6171
     4.6278   4.6355   4.6410   4.6452   4.6524   4.6694   4.6772   4.6847
     4.6904   4.7015   4.7077   4.7213   4.7320   4.7456   4.7483   4.7639
     4.8091   4.8286   4.9112   4.9192   4.9667   5.1071   5.1858   5.2223
     5.2434   5.2797   5.3061   5.3251   5.3504   5.3871   5.4255   5.4435
     5.4869   5.5068   5.5570   5.5765   5.6053   5.6289   5.6665   5.6927
     5.7408   5.7503   5.7915   5.8170   5.8585   5.8707   5.9171   5.9280
     5.9602   5.9657   5.9806   5.9967   6.0196   6.0644   6.0775   6.1019
     6.1198   6.1282   6.1779   6.2370   6.2808   6.3152   6.3897   6.4463
     6.4837   6.5061   6.5406   6.5941   6.6470   6.7482   6.7893   6.8130
     6.8327   6.8934   6.9133   6.9631   6.9701   6.9921   7.0252   7.0567
     7.0677   7.0839   7.0971   7.2521   7.2955   7.3069   7.3512   7.3882
     7.4285   7.4622   7.5453   7.5764   7.5916   7.6215   7.6343   7.6526
     7.6650   7.6789   7.7219   7.7410   7.8404   7.9101   7.9252   8.0320
     8.0684   8.0850   8.1030   8.1277   8.1428   8.1752   8.2002   8.2397
     8.2799   8.3200   8.4128   8.4994   8.5046   8.5352   8.5574   8.5852
     8.5965   8.6221   8.7559   8.8256   8.8278   8.8731  10.5110  12.3776
    12.9956  13.0156  13.4662  13.4937  13.9495  13.9777  14.1684  14.2043
    14.2443  14.3514  14.4905  14.5114  14.5485  14.6178  14.8696  14.8822
    14.8870  14.9080  14.9455  15.0013  15.4721  15.6366  15.6785  15.7913
    15.8610  16.0218  16.1083  16.2031  16.2203  16.2416  16.2793  16.3056
    16.4236  16.5810  16.7383  16.7862  16.9438  17.0073  17.1038  17.2410
    17.3245  17.5951  17.6704  17.6811  17.6893  17.7144  17.8021  17.9040
    17.9224  17.9673  17.9747  18.0693  18.1582  18.1935  18.2260  18.2397
    18.3110  18.3314  18.3858  18.5429  18.5674  18.6166  18.6809  18.7230
    18.8681  18.9512  19.0476  19.3238  19.4841  19.5636  19.6834  19.7393
    19.9147  19.9568  20.0033  20.0224  20.1136  20.1262  20.1745  20.2014
    20.2585  20.2976  20.3235  20.3655  20.4062  20.4531

     occupation numbers 
     1.0000   1.0000   1.0000   1.0000   1.0000   1.0000   1.0000   1.0000
     1.0000   1.0000   1.0000   1.0000   1.0000   1.0000   1.0000   1.0000
     1.0000   1.0000   1.0000   1.0000   1.0000   1.0000   1.0000   1.0000
     1.0000   1.0000   1.0000   1.0000   1.0000   1.0000   1.0000   1.0000
     1.0000   1.0000   1.0000   1.0000   1.0000   1.0000   1.0000   1.0000
     1.0000   1.0000   1.0000   1.0000   1.0000   1.0000   1.0000   1.0000
     1.0000   1.0000   1.0000   1.0000   1.0000   1.0000   1.0000   1.0000
     1.0000   1.0000   1.0000   1.0000   1.0000   1.0000   1.0000   1.0000
     1.0000   1.0000   1.0000   1.0000   1.0000   1.0000   1.0000   1.0000
     1.0000   1.0000   1.0000   1.0000   1.0000   1.0000   1.0000   1.0000
     1.0000   1.0000   1.0000   1.0000   1.0000   1.0000   1.0000   1.0000
     1.0000   1.0000   1.0000   1.0000   1.0000   1.0000   1.0000   1.0000
     1.0000   1.0000   1.0000   1.0000   1.0000   1.0000   1.0000   1.0000
     1.0000   1.0000   1.0000   1.0000   1.0000   1.0000   1.0000   1.0000
     1.0000   1.0000   1.0000   1.0000   1.0000   1.0000   1.0000   1.0000
     1.0000   1.0000   1.0000   1.0000   1.0000   1.0000   1.0000   1.0000
     1.0000   1.0000   1.0000   1.0000   1.0000   1.0000   1.0000   1.0000
     1.0000   1.0000   1.0000   1.0000   1.0000   1.0000   1.0000   1.0000
     1.0000   1.0000   1.0000   1.0000   1.0000   1.0000   1.0000   1.0000
     1.0000   1.0000   1.0000   1.0000   1.0000   1.0000   1.0000   1.0000
     1.0000   1.0000   1.0000   1.0000   1.0000   1.0000   1.0000   1.0000
     1.0000   1.0000   1.0000   1.0000   1.0000   1.0000   1.0000   1.0000
     1.0000   1.0000   1.0000   1.0000   1.0000   1.0000   1.0000   1.0000
     1.0000   1.0000   1.0000   1.0000   1.0000   1.0000   1.0000   1.0000
     1.0000   1.0000   1.0000   1.0000   1.0000   1.0000   1.0000   1.0000
     1.0000   1.0000   1.0000   1.0000   1.0000   1.0000   1.0000   1.0000
     1.0000   1.0000   1.0000   1.0000   1.0000   1.0000   1.0000   1.0000
     1.0000   1.0000   1.0000   1.0000   1.0000   1.0000   1.0000   1.0000
     1.0000   1.0000   1.0000   1.0000   1.0000   1.0000   1.0000   1.0000
     1.0000   1.0000   1.0000   1.0000   1.0000   1.0000   1.0000   1.0000
     1.0000   1.0000   1.0000   1.0000   1.0000   1.0000   1.0000   1.0000
     1.0000   1.0000   1.0000   1.0000   1.0000   1.0000   1.0000   1.0000
     1.0000   1.0000   1.0000   1.0000   1.0000   1.0000   1.0000   1.0000
     1.0000   1.0000   1.0000   1.0000   1.0000   1.0000   1.0000   1.0000
     1.0000   1.0000   1.0000   1.0000   1.0000   1.0000   1.0000   1.0000
     1.0000   1.0000   1.0000   1.0000   1.0000   1.0000   1.0000   1.0000
     1.0000   1.0000   1.0000   1.0000   1.0000   1.0000   1.0000   1.0000
     1.0000   1.0000   1.0000   1.0000   1.0000   1.0000   1.0000   1.0000
     1.0000   1.0000   1.0000   1.0000   1.0000   1.0000   1.0000   1.0000
     1.0000   1.0000   1.0000   1.0000   1.0000   1.0000   1.0000   1.0000
     1.0000   1.0000   1.0000   1.0000   1.0000   1.0000   1.0000   1.0000
     1.0000   1.0000   1.0000   1.0000   1.0000   1.0000   1.0000   1.0000
     1.0000   1.0000   1.0000   1.0000   1.0000   1.0000   1.0000   1.0000
     1.0000   1.0000   1.0000   1.0000   1.0000   1.0000   1.0000   1.0000
     1.0000   1.0000   1.0000   1.0000   1.0000   1.0000   1.0000   1.0000
     1.0000   1.0000   1.0000   1.0000   1.0000   1.0000   1.0000   1.0000
     1.0000   1.0000   1.0000   1.0000   1.0000   1.0000   1.0000   1.0000
     1.0000   1.0000   1.0000   1.0000   1.0000   1.0000   1.0000   1.0000
     1.0000   1.0000   1.0000   1.0000   1.0000   1.0000   1.0000   1.0000
     1.0000   1.0000   1.0000   1.0000   1.0000   1.0000   1.0000   1.0000
     1.0000   1.0000   1.0000   1.0000   1.0000   1.0000   1.0000   1.0000
     1.0000   1.0000   1.0000   1.0000   1.0000   1.0000   1.0000   1.0000
     1.0000   1.0000   1.0000   1.0000   1.0000   1.0000   1.0000   1.0000
     1.0000   1.0000   1.0000   1.0000   1.0000   1.0000   1.0000   1.0000
     1.0000   1.0000   1.0000   1.0000   1.0000   1.0000   0.0000   0.0000
     0.0000   0.0000   0.0000   0.0000   0.0000   0.0000   0.0000   0.0000
     0.0000   0.0000   0.0000   0.0000   0.0000   0.0000   0.0000   0.0000
     0.0000   0.0000   0.0000   0.0000   0.0000   0.0000   0.0000   0.0000
     0.0000   0.0000   0.0000   0.0000   0.0000   0.0000   0.0000   0.0000
     0.0000   0.0000   0.0000   0.0000   0.0000   0.0000   0.0000   0.0000
     0.0000   0.0000   0.0000   0.0000   0.0000   0.0000   0.0000   0.0000
     0.0000   0.0000   0.0000   0.0000   0.0000   0.0000   0.0000   0.0000
     0.0000   0.0000   0.0000   0.0000   0.0000   0.0000   0.0000   0.0000
     0.0000   0.0000   0.0000   0.0000   0.0000   0.0000   0.0000   0.0000
     0.0000   0.0000   0.0000   0.0000   0.0000   0.0000   0.0000   0.0000
     0.0000   0.0000   0.0000   0.0000   0.0000   0.0000

          k =-0.0000 0.2887 0.2916 ( 43015 PWs)   bands (ev):

  -114.2335-114.2213-114.2185-114.2165-114.2131-114.2127-114.2120-114.2067
  -114.2043-114.2041-114.2037-114.2031-114.1980-114.1963-114.1918-114.1908
  -114.1877-114.1874-114.1872-114.1867-114.1814-114.1779-114.1764-114.1764
  -114.1754-114.1671-114.1665-114.1592-114.1487-114.1461 -68.5987 -68.5914
   -68.5898 -68.5884 -68.5855 -68.5834 -68.5810 -68.5789 -68.5786 -68.5784
   -68.5766 -68.5753 -68.5750 -68.5731 -68.5730 -68.5709 -68.5705 -68.5701
   -68.5691 -68.5691 -68.5686 -68.5678 -68.5673 -68.5672 -68.5660 -68.5654
   -68.5650 -68.5643 -68.5630 -68.5625 -68.5616 -68.5612 -68.5609 -68.5606
   -68.5590 -68.5587 -68.5583 -68.5579 -68.5577 -68.5574 -68.5555 -68.5547
   -68.5539 -68.5534 -68.5532 -68.5524 -68.5493 -68.5490 -68.5483 -68.5476
   -68.5474 -68.5473 -68.5471 -68.5456 -68.5448 -68.5444 -68.5443 -68.5442
   -68.5438 -68.5431 -68.5428 -68.5424 -68.5420 -68.5411 -68.5381 -68.5378
   -68.5368 -68.5349 -68.5346 -68.5342 -68.5335 -68.5332 -68.5328 -68.5322
   -68.5319 -68.5296 -68.5293 -68.5281 -68.5244 -68.5230 -68.5207 -68.5176
   -68.5175 -68.5159 -68.5149 -68.5119 -68.5051 -68.5029 -68.5016 -68.4977
   -63.8228 -63.8157 -63.8014 -63.7960 -63.7916 -63.7821 -30.8094 -30.8051
   -30.8029 -30.8025 -30.7972 -30.7952 -30.7932 -30.7918 -30.7870 -30.7844
   -30.7769 -30.7756 -30.7732 -30.7693 -30.7677 -30.7652 -30.7600 -30.7582
    -9.0304  -8.7601  -8.6858  -8.6589  -8.6442  -8.4737  -8.4673  -8.4534
    -8.4129  -8.3917  -8.3621  -8.2650  -8.2551  -8.2289  -8.2181  -8.1982
    -8.1769  -8.1166  -8.1090  -8.0874  -8.0817  -8.0637  -8.0380  -8.0209
    -8.0060  -7.9888  -7.9694  -7.9429  -7.9311  -7.8839  -7.8741  -7.8605
    -7.8290  -7.7769  -7.7547  -7.6783   2.6033   2.6273   2.6628   2.6997
     2.7252   2.7501   2.7640   2.8022   2.8176   2.8392   2.8517   2.8850
     2.8904   2.9113   2.9433   2.9636   2.9832   3.0041   3.0222   3.0379
     3.0654   3.0908   3.1004   3.1191   3.1364   3.1672   3.2126   3.2315
     3.2551   3.2703   3.2878   3.3126   3.3371   3.3458   3.3738   3.3889
     3.3965   3.4062   3.4224   3.4254   3.4420   3.4461   3.4514   3.4596
     3.4727   3.4787   3.4901   3.5007   3.5110   3.5187   3.5262   3.5354
     3.5397   3.5461   3.5516   3.5665   3.5734   3.5823   3.5911   3.5983
     3.6051   3.6148   3.6201   3.6275   3.6400   3.6509   3.6566   3.6667
     3.6778   3.6851   3.6954   3.7072   3.7152   3.7400   3.7486   3.7613
     3.7711   3.7850   3.7962   3.8063   3.8151   3.8360   3.8458   3.8619
     3.9138   3.9170   3.9346   3.9478   3.9593   3.9771   3.9911   4.0131
     4.0355   4.0573   4.0744   4.0953   4.1095   4.1265   4.1637   4.1700
     4.1928   4.2069   4.2227   4.2453   4.2559   4.2813   4.2955   4.2999
     4.3172   4.3268   4.3382   4.3587   4.3718   4.3860   4.3928   4.4265
     4.4536   4.4568   4.4682   4.4760   4.4889   4.4966   4.5074   4.5121
     4.5344   4.5461   4.5601   4.5745   4.5911   4.5936   4.6111   4.6196
     4.6239   4.6390   4.6424   4.6481   4.6505   4.6626   4.6729   4.6847
     4.6896   4.6989   4.7078   4.7150   4.7318   4.7362   4.7432   4.7605
     4.7870   4.8051   4.9724   4.9819   5.0613   5.1235   5.1914   5.2171
     5.2374   5.2692   5.2893   5.3093   5.3361   5.3399   5.3925   5.4362
     5.4651   5.4729   5.4928   5.5204   5.5370   5.5607   5.5911   5.6046
     5.6285   5.6587   5.6773   5.7003   5.7448   5.7679   5.8289   5.8998
     5.9522   5.9865   6.0334   6.0753   6.1059   6.1489   6.2246   6.2518
     6.2770   6.2982   6.3165   6.3541   6.4397   6.4648   6.4798   6.5229
     6.5508   6.5792   6.5991   6.6667   6.7022   6.7264   6.7628   6.7822
     6.8127   6.8463   6.8815   6.9479   6.9741   7.0004   7.0462   7.1127
     7.2142   7.2325   7.2647   7.3565   7.3893   7.4284   7.4568   7.4965
     7.5184   7.5480   7.5779   7.5944   7.6142   7.6338   7.6892   7.7089
     7.7234   7.7565   7.7917   7.8108   7.8506   7.8750   7.8855   7.9001
     7.9568   8.0011   8.0154   8.0369   8.0751   8.0814   8.1051   8.1379
     8.2648   8.3402   8.3674   8.4301   8.4653   8.4922   8.5353   8.5615
     8.5941   8.6342   8.6656   8.7013   8.7168   8.7491  10.8323  12.4820
    12.5839  13.0689  13.1056  13.4645  13.8037  13.8439  13.9537  13.9939
    14.1088  14.2456  14.3617  14.4290  14.5127  14.6600  14.9504  15.2359
    15.2888  15.3176  15.4515  15.4664  15.5354  15.6749  15.7197  15.8084
    15.8725  15.9569  16.0391  16.1220  16.1811  16.2609  16.4428  16.4924
    16.5100  16.6021  16.8070  16.8483  16.9834  17.0356  17.1308  17.2447
    17.3288  17.3606  17.4316  17.5278  17.5556  17.6056  17.6346  17.6474
    17.7247  17.7728  17.8532  17.9008  17.9254  17.9744  18.0178  18.0574
    18.0956  18.1797  18.2203  18.2691  18.3490  18.4128  18.5728  18.6991
    18.8085  18.8546  19.0193  19.3991  19.4979  19.5666  19.6870  19.7624
    19.8433  19.8924  19.9373  19.9906  20.0276  20.2128  20.2810  20.3355
    20.3958  20.4192  20.4897  20.6395  20.6695  20.7557

     occupation numbers 
     1.0000   1.0000   1.0000   1.0000   1.0000   1.0000   1.0000   1.0000
     1.0000   1.0000   1.0000   1.0000   1.0000   1.0000   1.0000   1.0000
     1.0000   1.0000   1.0000   1.0000   1.0000   1.0000   1.0000   1.0000
     1.0000   1.0000   1.0000   1.0000   1.0000   1.0000   1.0000   1.0000
     1.0000   1.0000   1.0000   1.0000   1.0000   1.0000   1.0000   1.0000
     1.0000   1.0000   1.0000   1.0000   1.0000   1.0000   1.0000   1.0000
     1.0000   1.0000   1.0000   1.0000   1.0000   1.0000   1.0000   1.0000
     1.0000   1.0000   1.0000   1.0000   1.0000   1.0000   1.0000   1.0000
     1.0000   1.0000   1.0000   1.0000   1.0000   1.0000   1.0000   1.0000
     1.0000   1.0000   1.0000   1.0000   1.0000   1.0000   1.0000   1.0000
     1.0000   1.0000   1.0000   1.0000   1.0000   1.0000   1.0000   1.0000
     1.0000   1.0000   1.0000   1.0000   1.0000   1.0000   1.0000   1.0000
     1.0000   1.0000   1.0000   1.0000   1.0000   1.0000   1.0000   1.0000
     1.0000   1.0000   1.0000   1.0000   1.0000   1.0000   1.0000   1.0000
     1.0000   1.0000   1.0000   1.0000   1.0000   1.0000   1.0000   1.0000
     1.0000   1.0000   1.0000   1.0000   1.0000   1.0000   1.0000   1.0000
     1.0000   1.0000   1.0000   1.0000   1.0000   1.0000   1.0000   1.0000
     1.0000   1.0000   1.0000   1.0000   1.0000   1.0000   1.0000   1.0000
     1.0000   1.0000   1.0000   1.0000   1.0000   1.0000   1.0000   1.0000
     1.0000   1.0000   1.0000   1.0000   1.0000   1.0000   1.0000   1.0000
     1.0000   1.0000   1.0000   1.0000   1.0000   1.0000   1.0000   1.0000
     1.0000   1.0000   1.0000   1.0000   1.0000   1.0000   1.0000   1.0000
     1.0000   1.0000   1.0000   1.0000   1.0000   1.0000   1.0000   1.0000
     1.0000   1.0000   1.0000   1.0000   1.0000   1.0000   1.0000   1.0000
     1.0000   1.0000   1.0000   1.0000   1.0000   1.0000   1.0000   1.0000
     1.0000   1.0000   1.0000   1.0000   1.0000   1.0000   1.0000   1.0000
     1.0000   1.0000   1.0000   1.0000   1.0000   1.0000   1.0000   1.0000
     1.0000   1.0000   1.0000   1.0000   1.0000   1.0000   1.0000   1.0000
     1.0000   1.0000   1.0000   1.0000   1.0000   1.0000   1.0000   1.0000
     1.0000   1.0000   1.0000   1.0000   1.0000   1.0000   1.0000   1.0000
     1.0000   1.0000   1.0000   1.0000   1.0000   1.0000   1.0000   1.0000
     1.0000   1.0000   1.0000   1.0000   1.0000   1.0000   1.0000   1.0000
     1.0000   1.0000   1.0000   1.0000   1.0000   1.0000   1.0000   1.0000
     1.0000   1.0000   1.0000   1.0000   1.0000   1.0000   1.0000   1.0000
     1.0000   1.0000   1.0000   1.0000   1.0000   1.0000   1.0000   1.0000
     1.0000   1.0000   1.0000   1.0000   1.0000   1.0000   1.0000   1.0000
     1.0000   1.0000   1.0000   1.0000   1.0000   1.0000   1.0000   1.0000
     1.0000   1.0000   1.0000   1.0000   1.0000   1.0000   1.0000   1.0000
     1.0000   1.0000   1.0000   1.0000   1.0000   1.0000   1.0000   1.0000
     1.0000   1.0000   1.0000   1.0000   1.0000   1.0000   1.0000   1.0000
     1.0000   1.0000   1.0000   1.0000   1.0000   1.0000   1.0000   1.0000
     1.0000   1.0000   1.0000   1.0000   1.0000   1.0000   1.0000   1.0000
     1.0000   1.0000   1.0000   1.0000   1.0000   1.0000   1.0000   1.0000
     1.0000   1.0000   1.0000   1.0000   1.0000   1.0000   1.0000   1.0000
     1.0000   1.0000   1.0000   1.0000   1.0000   1.0000   1.0000   1.0000
     1.0000   1.0000   1.0000   1.0000   1.0000   1.0000   1.0000   1.0000
     1.0000   1.0000   1.0000   1.0000   1.0000   1.0000   1.0000   1.0000
     1.0000   1.0000   1.0000   1.0000   1.0000   1.0000   1.0000   1.0000
     1.0000   1.0000   1.0000   1.0000   1.0000   1.0000   1.0000   1.0000
     1.0000   1.0000   1.0000   1.0000   1.0000   1.0000   1.0000   1.0000
     1.0000   1.0000   1.0000   1.0000   1.0000   1.0000   1.0000   1.0000
     1.0000   1.0000   1.0000   1.0000   1.0000   1.0000   1.0000   1.0000
     1.0000   1.0000   1.0000   1.0000   1.0000   1.0000   1.0000   1.0000
     1.0000   1.0000   1.0000   1.0000   1.0000   1.0000   1.0000   1.0000
     1.0000   1.0000   1.0000   1.0000   1.0000   1.0000   0.0000   0.0000
     0.0000   0.0000   0.0000   0.0000   0.0000   0.0000   0.0000   0.0000
     0.0000   0.0000   0.0000   0.0000   0.0000   0.0000   0.0000   0.0000
     0.0000   0.0000   0.0000   0.0000   0.0000   0.0000   0.0000   0.0000
     0.0000   0.0000   0.0000   0.0000   0.0000   0.0000   0.0000   0.0000
     0.0000   0.0000   0.0000   0.0000   0.0000   0.0000   0.0000   0.0000
     0.0000   0.0000   0.0000   0.0000   0.0000   0.0000   0.0000   0.0000
     0.0000   0.0000   0.0000   0.0000   0.0000   0.0000   0.0000   0.0000
     0.0000   0.0000   0.0000   0.0000   0.0000   0.0000   0.0000   0.0000
     0.0000   0.0000   0.0000   0.0000   0.0000   0.0000   0.0000   0.0000
     0.0000   0.0000   0.0000   0.0000   0.0000   0.0000   0.0000   0.0000
     0.0000   0.0000   0.0000   0.0000   0.0000   0.0000

          k =-0.0000 0.2887-0.5832 ( 43022 PWs)   bands (ev):

  -114.2335-114.2213-114.2185-114.2165-114.2131-114.2127-114.2120-114.2067
  -114.2043-114.2041-114.2037-114.2031-114.1980-114.1963-114.1918-114.1908
  -114.1877-114.1874-114.1872-114.1867-114.1814-114.1779-114.1764-114.1764
  -114.1754-114.1671-114.1665-114.1592-114.1487-114.1461 -68.5987 -68.5914
   -68.5898 -68.5884 -68.5855 -68.5834 -68.5810 -68.5789 -68.5786 -68.5784
   -68.5766 -68.5753 -68.5750 -68.5731 -68.5730 -68.5709 -68.5705 -68.5701
   -68.5691 -68.5691 -68.5686 -68.5678 -68.5673 -68.5672 -68.5660 -68.5654
   -68.5650 -68.5643 -68.5630 -68.5625 -68.5616 -68.5612 -68.5609 -68.5606
   -68.5590 -68.5587 -68.5583 -68.5579 -68.5577 -68.5574 -68.5555 -68.5547
   -68.5539 -68.5534 -68.5532 -68.5523 -68.5493 -68.5490 -68.5483 -68.5476
   -68.5474 -68.5473 -68.5471 -68.5456 -68.5448 -68.5444 -68.5443 -68.5442
   -68.5438 -68.5431 -68.5428 -68.5424 -68.5420 -68.5411 -68.5381 -68.5378
   -68.5368 -68.5349 -68.5346 -68.5342 -68.5335 -68.5332 -68.5328 -68.5322
   -68.5319 -68.5296 -68.5293 -68.5281 -68.5244 -68.5230 -68.5207 -68.5176
   -68.5175 -68.5159 -68.5149 -68.5119 -68.5051 -68.5029 -68.5016 -68.4977
   -63.8228 -63.8157 -63.8014 -63.7960 -63.7916 -63.7821 -30.8094 -30.8051
   -30.8029 -30.8025 -30.7972 -30.7952 -30.7932 -30.7918 -30.7870 -30.7844
   -30.7769 -30.7756 -30.7732 -30.7693 -30.7677 -30.7652 -30.7600 -30.7582
    -8.9326  -8.8459  -8.6814  -8.6139  -8.5891  -8.5681  -8.5097  -8.4663
    -8.4233  -8.4101  -8.3721  -8.3373  -8.3220  -8.2620  -8.2116  -8.1971
[...]
     atom   35 type  2   force =    -0.00125003    0.00072570   -0.00006541
     atom   36 type  2   force =     0.00123233   -0.00076444   -0.00007058
     atom   37 type  2   force =     0.00126355   -0.00072861   -0.00005978
     atom   38 type  2   force =    -0.00000414    0.00145537    0.00003236
     atom   39 type  2   force =    -0.00125018   -0.00075129   -0.00001144
     atom   40 type  2   force =    -0.00004334   -0.00000175    0.00004088
     atom   41 type  2   force =    -0.00132970   -0.00071547    0.00012321
     atom   42 type  2   force =     0.00134449    0.00079512    0.00010729
     atom   43 type  1   force =     0.00000000    0.00000000    0.00000000
     atom   44 type  1   force =     0.00000000    0.00000000    0.00000000
     atom   45 type  1   force =     0.00000000    0.00000000    0.00000000
     atom   46 type  1   force =     0.00000000    0.00000000    0.00000000
     atom   47 type  1   force =     0.00000000    0.00000000    0.00000000
     atom   48 type  1   force =     0.00000000    0.00000000    0.00000000
     atom   49 type  1   force =     0.00000000    0.00000000    0.00000000
     atom   50 type  1   force =     0.00000000    0.00000000    0.00000000
     atom   51 type  1   force =     0.00000000    0.00000000    0.00000000
     atom   52 type  1   force =     0.00000000    0.00000000    0.00000000
     atom   53 type  1   force =     0.00000000    0.00000000    0.00000000
     atom   54 type  1   force =     0.00000000    0.00000000    0.00000000
     atom   55 type  1   force =     0.00000000    0.00000000    0.00000000
     atom   56 type  1   force =     0.00000000    0.00000000    0.00000000
     atom   57 type  1   force =     0.00000000    0.00000000    0.00000000
     atom   58 type  1   force =     0.00000000    0.00000000    0.00000000
     atom   59 type  1   force =     0.00000000    0.00000000    0.00000000
     atom   60 type  1   force =     0.00000000    0.00000000    0.00000000
     atom   61 type  1   force =     0.00000000    0.00000000    0.00000000
     atom   62 type  1   force =     0.00000000    0.00000000    0.00000000
     atom   63 type  1   force =     0.00000000    0.00000000    0.00000000
     atom   64 type  1   force =     0.00000000    0.00000000    0.00000000
     atom   65 type  1   force =     0.00000000    0.00000000    0.00000000
     atom   66 type  1   force =     0.00000000    0.00000000    0.00000000
     atom   67 type  1   force =     0.00000000    0.00000000    0.00000000
     atom   68 type  1   force =     0.00000000    0.00000000    0.00000000
     atom   69 type  1   force =     0.00000000    0.00000000    0.00000000
     atom   70 type  1   force =     0.00000000    0.00000000    0.00000000
     atom   71 type  1   force =     0.00000000    0.00000000    0.00000000
     atom   72 type  1   force =     0.00000000    0.00000000    0.00000000
     The Hubbard contrib.    to forces
     atom    1 type  3   force =     0.00000000    0.00000000    0.00000000
     atom    2 type  3   force =     0.00000000    0.00000000    0.00000000
     atom    3 type  3   force =     0.00000000    0.00000000    0.00000000
     atom    4 type  3   force =     0.00000000    0.00000000    0.00000000
     atom    5 type  3   force =     0.00000000    0.00000000    0.00000000
     atom    6 type  3   force =     0.00000000    0.00000000    0.00000000
     atom    7 type  2   force =     0.00000000    0.00000000    0.00000000
     atom    8 type  2   force =     0.00000000    0.00000000    0.00000000
     atom    9 type  2   force =     0.00000000    0.00000000    0.00000000
     atom   10 type  2   force =     0.00000000    0.00000000    0.00000000
     atom   11 type  2   force =     0.00000000    0.00000000    0.00000000
     atom   12 type  2   force =     0.00000000    0.00000000    0.00000000
     atom   13 type  2   force =     0.00000000    0.00000000    0.00000000
     atom   14 type  2   force =     0.00000000    0.00000000    0.00000000
     atom   15 type  2   force =     0.00000000    0.00000000    0.00000000
     atom   16 type  2   force =     0.00000000    0.00000000    0.00000000
     atom   17 type  2   force =     0.00000000    0.00000000    0.00000000
     atom   18 type  2   force =     0.00000000    0.00000000    0.00000000
     atom   19 type  2   force =     0.00000000    0.00000000    0.00000000
     atom   20 type  2   force =     0.00000000    0.00000000    0.00000000
     atom   21 type  2   force =     0.00000000    0.00000000    0.00000000
     atom   22 type  2   force =     0.00000000    0.00000000    0.00000000
     atom   23 type  2   force =     0.00000000    0.00000000    0.00000000
     atom   24 type  2   force =     0.00000000    0.00000000    0.00000000
     atom   25 type  2   force =     0.00000000    0.00000000    0.00000000
     atom   26 type  2   force =     0.00000000    0.00000000    0.00000000
     atom   27 type  2   force =     0.00000000    0.00000000    0.00000000
     atom   28 type  2   force =     0.00000000    0.00000000    0.00000000
     atom   29 type  2   force =     0.00000000    0.00000000    0.00000000
     atom   30 type  2   force =     0.00000000    0.00000000    0.00000000
     atom   31 type  2   force =     0.00000000    0.00000000    0.00000000
     atom   32 type  2   force =     0.00000000    0.00000000    0.00000000
     atom   33 type  2   force =     0.00000000    0.00000000    0.00000000
     atom   34 type  2   force =     0.00000000    0.00000000    0.00000000
     atom   35 type  2   force =     0.00000000    0.00000000    0.00000000
     atom   36 type  2   force =     0.00000000    0.00000000    0.00000000
     atom   37 type  2   force =     0.00000000    0.00000000    0.00000000
     atom   38 type  2   force =     0.00000000    0.00000000    0.00000000
     atom   39 type  2   force =     0.00000000    0.00000000    0.00000000
     atom   40 type  2   force =     0.00000000    0.00000000    0.00000000
     atom   41 type  2   force =     0.00000000    0.00000000    0.00000000
     atom   42 type  2   force =     0.00000000    0.00000000    0.00000000
     atom   43 type  1   force =     0.00000000    0.00000000    0.00000000
     atom   44 type  1   force =     0.00000000    0.00000000    0.00000000
     atom   45 type  1   force =     0.00000000    0.00000000    0.00000000
     atom   46 type  1   force =     0.00000000    0.00000000    0.00000000
     atom   47 type  1   force =     0.00000000    0.00000000    0.00000000
     atom   48 type  1   force =     0.00000000    0.00000000    0.00000000
     atom   49 type  1   force =     0.00000000    0.00000000    0.00000000
     atom   50 type  1   force =     0.00000000    0.00000000    0.00000000
     atom   51 type  1   force =     0.00000000    0.00000000    0.00000000
     atom   52 type  1   force =     0.00000000    0.00000000    0.00000000
     atom   53 type  1   force =     0.00000000    0.00000000    0.00000000
     atom   54 type  1   force =     0.00000000    0.00000000    0.00000000
     atom   55 type  1   force =     0.00000000    0.00000000    0.00000000
     atom   56 type  1   force =     0.00000000    0.00000000    0.00000000
     atom   57 type  1   force =     0.00000000    0.00000000    0.00000000
     atom   58 type  1   force =     0.00000000    0.00000000    0.00000000
     atom   59 type  1   force =     0.00000000    0.00000000    0.00000000
     atom   60 type  1   force =     0.00000000    0.00000000    0.00000000
     atom   61 type  1   force =     0.00000000    0.00000000    0.00000000
     atom   62 type  1   force =     0.00000000    0.00000000    0.00000000
     atom   63 type  1   force =     0.00000000    0.00000000    0.00000000
     atom   64 type  1   force =     0.00000000    0.00000000    0.00000000
     atom   65 type  1   force =     0.00000000    0.00000000    0.00000000
     atom   66 type  1   force =     0.00000000    0.00000000    0.00000000
     atom   67 type  1   force =     0.00000000    0.00000000    0.00000000
     atom   68 type  1   force =     0.00000000    0.00000000    0.00000000
     atom   69 type  1   force =     0.00000000    0.00000000    0.00000000
     atom   70 type  1   force =     0.00000000    0.00000000    0.00000000
     atom   71 type  1   force =     0.00000000    0.00000000    0.00000000
     atom   72 type  1   force =     0.00000000    0.00000000    0.00000000
     The SCF correction term to forces
     atom    1 type  3   force =    -0.00000673    0.00001825    0.00000000
     atom    2 type  3   force =     0.00002801    0.00002218    0.00000000
     atom    3 type  3   force =    -0.00000443    0.00000581    0.00000000
     atom    4 type  3   force =    -0.00002072    0.00001297    0.00000000
     atom    5 type  3   force =     0.00000546    0.00004642    0.00000000
     atom    6 type  3   force =    -0.00000906    0.00002448    0.00000000
     atom    7 type  2   force =    -0.00000235    0.00001056    0.00000000
     atom    8 type  2   force =    -0.00000689   -0.00001230    0.00000000
     atom    9 type  2   force =    -0.00000107    0.00000243    0.00000000
     atom   10 type  2   force =     0.00000182   -0.00001200    0.00000000
     atom   11 type  2   force =     0.00000653    0.00001019    0.00000000
     atom   12 type  2   force =     0.00000459   -0.00001033    0.00000000
     atom   13 type  2   force =    -0.00000343    0.00001371    0.00000000
     atom   14 type  2   force =    -0.00000211   -0.00000249    0.00000000
     atom   15 type  2   force =     0.00000317   -0.00000081    0.00000000
     atom   16 type  2   force =    -0.00000359    0.00000415    0.00000000
     atom   17 type  2   force =     0.00000186   -0.00000012    0.00000000
     atom   18 type  2   force =     0.00000308   -0.00000559    0.00000000
     atom   19 type  2   force =    -0.00000440    0.00000137    0.00000000
     atom   20 type  2   force =     0.00000043    0.00000190    0.00000000
     atom   21 type  2   force =    -0.00000428    0.00000186    0.00000000
     atom   22 type  2   force =     0.00000365   -0.00000062    0.00000000
     atom   23 type  2   force =     0.00000191   -0.00000472    0.00000000
     atom   24 type  2   force =     0.00000148    0.00000175    0.00000000
     atom   25 type  2   force =    -0.00000012    0.00001256    0.00000000
     atom   26 type  2   force =     0.00001022   -0.00000669    0.00000000
     atom   27 type  2   force =    -0.00000497    0.00001028    0.00000000
     atom   28 type  2   force =     0.00000377    0.00000411    0.00000000
     atom   29 type  2   force =    -0.00000401   -0.00000051    0.00000000
     atom   30 type  2   force =    -0.00000496   -0.00000668    0.00000000
     atom   31 type  2   force =     0.00000332   -0.00000557    0.00000000
     atom   32 type  2   force =    -0.00000381   -0.00000507    0.00000000
     atom   33 type  2   force =    -0.00000005   -0.00000028    0.00000000
     atom   34 type  2   force =    -0.00000345    0.00000677    0.00000000
     atom   35 type  2   force =    -0.00000365   -0.00000247    0.00000000
     atom   36 type  2   force =    -0.00000032    0.00000042    0.00000000
     atom   37 type  2   force =    -0.00000215   -0.00000338    0.00000000
     atom   38 type  2   force =     0.00000380   -0.00000340    0.00000000
     atom   39 type  2   force =    -0.00000092    0.00000104    0.00000000
     atom   40 type  2   force =     0.00000390   -0.00000694    0.00000000
     atom   41 type  2   force =     0.00000379    0.00000097    0.00000000
     atom   42 type  2   force =    -0.00000106    0.00000556    0.00000000
     atom   43 type  1   force =    -0.00001189    0.00002199    0.00000000
     atom   44 type  1   force =    -0.00003059   -0.00004464    0.00000000
     atom   45 type  1   force =    -0.00002033    0.00003185    0.00000000
     atom   46 type  1   force =     0.00001380   -0.00006689    0.00000000
     atom   47 type  1   force =     0.00003165    0.00002216    0.00000000
     atom   48 type  1   force =    -0.00001988    0.00005236    0.00000000
     atom   49 type  1   force =     0.00001379   -0.00003924    0.00000000
     atom   50 type  1   force =     0.00001919    0.00000828    0.00000000
     atom   51 type  1   force =     0.00000390    0.00001596    0.00000000
     atom   52 type  1   force =    -0.00000283    0.00005503    0.00000000
     atom   53 type  1   force =     0.00002127    0.00007669    0.00000000
     atom   54 type  1   force =     0.00000194   -0.00000830    0.00000000
     atom   55 type  1   force =     0.00002017   -0.00002226    0.00000000
     atom   56 type  1   force =     0.00001043   -0.00004320    0.00000000
     atom   57 type  1   force =    -0.00002725   -0.00002503    0.00000000
     atom   58 type  1   force =     0.00002825   -0.00000851    0.00000000
     atom   59 type  1   force =    -0.00003739   -0.00006392    0.00000000
     atom   60 type  1   force =     0.00002954    0.00003159    0.00000000
     atom   61 type  1   force =    -0.00006764    0.00004335    0.00000000
     atom   62 type  1   force =     0.00000336   -0.00008253    0.00000000
     atom   63 type  1   force =    -0.00000275   -0.00005379    0.00000000
     atom   64 type  1   force =    -0.00001321   -0.00000659    0.00000000
     atom   65 type  1   force =     0.00004073    0.00000091    0.00000000
     atom   66 type  1   force =     0.00000511    0.00007657    0.00000000
     atom   67 type  1   force =    -0.00003100   -0.00006140    0.00000000
     atom   68 type  1   force =    -0.00000132   -0.00000722    0.00000000
     atom   69 type  1   force =     0.00000838   -0.00007180    0.00000000
     atom   70 type  1   force =     0.00000139   -0.00000024    0.00000000
     atom   71 type  1   force =     0.00000145    0.00000105    0.00000000
     atom   72 type  1   force =     0.00002358   -0.00005590    0.00000000

     Total force =     0.000154     Total SCF correction =     0.000289
     SCF correction compared to forces is large: reduce conv_thr to get better values


     Computing stress (Cartesian axis) and pressure

          total   stress  (Ry/bohr**3)                   (kbar)     P=    1.67
   0.00001242   0.00000000   0.00000001          1.83      0.00      0.00
   0.00000000   0.00001244  -0.00000001          0.00      1.83     -0.00
   0.00000001  -0.00000001   0.00000918          0.00     -0.00      1.35

     kinetic stress (kbar)  32820.52     -0.12     -0.03
                               -0.12  32820.48      0.12
                               -0.03      0.12  33073.44

     local   stress (kbar)   -671.14    -25.94   -413.84
                              -25.94    669.60    315.43
                             -413.84    315.43 -21163.36

     nonloc. stress (kbar)   -555.87      0.06      0.01
                                0.06   -555.84     -0.08
                                0.01     -0.08   -640.96

     hartree stress (kbar)  57646.82     12.35    202.83
                               12.35  56983.86   -155.16
                              202.83   -155.16  67364.91

     exc-cor stress (kbar) -13532.94      0.00      0.00
                                0.00 -13532.94     -0.00
                                0.00     -0.00 -13534.50

     corecor stress (kbar)   -260.74      0.00      0.00
                                0.00   -260.74     -0.00
                                0.00     -0.00   -261.18

     ewald   stress (kbar) -75444.82     13.65    211.03
                               13.65 -76122.59   -160.31
                              211.03   -160.31 -64837.00

     hubbard stress (kbar)      0.00      0.00      0.00
                                0.00      0.00      0.00
                                0.00      0.00      0.00

     london  stress (kbar)      0.00      0.00      0.00
                                0.00      0.00      0.00
                                0.00      0.00      0.00

     DFT-D3  stress (kbar)      0.00      0.00      0.00
                                0.00      0.00      0.00
                                0.00      0.00      0.00

     XDM     stress (kbar)      0.00      0.00      0.00
                                0.00      0.00      0.00
                                0.00      0.00      0.00

     dft-nl  stress (kbar)      0.00      0.00      0.00
                                0.00      0.00      0.00
                                0.00      0.00      0.00

     TS-vdW  stress (kbar)      0.00      0.00      0.00
                                0.00      0.00      0.00
                                0.00      0.00      0.00



     Writing output data file ZnO.save/
 
     init_run     :     15.19s CPU     21.23s WALL (       1 calls)
     electrons    :    756.84s CPU    775.31s WALL (       1 calls)
     forces       :      9.69s CPU      9.94s WALL (       1 calls)
     stress       :    144.12s CPU    144.58s WALL (       1 calls)

     Called by init_run:
     wfcinit      :     13.06s CPU     15.08s WALL (       1 calls)
     wfcinit:atom :      0.08s CPU      0.12s WALL (       5 calls)
     wfcinit:wfcr :     12.56s CPU     14.50s WALL (       5 calls)
     potinit      :      0.98s CPU      1.35s WALL (       1 calls)
     hinit0       :      0.74s CPU      3.90s WALL (       1 calls)

     Called by electrons:
     c_bands      :    702.76s CPU    718.16s WALL (      12 calls)
     sum_band     :     47.39s CPU     48.62s WALL (      12 calls)
     v_of_rho     :      5.48s CPU      5.98s WALL (      13 calls)
     v_h          :      0.12s CPU      0.18s WALL (      13 calls)
     v_xc         :      6.15s CPU      6.63s WALL (      15 calls)
     newd         :      1.08s CPU      1.35s WALL (      13 calls)
     mix_rho      :      0.31s CPU      1.13s WALL (      12 calls)

     Called by c_bands:
     init_us_2    :      4.15s CPU      4.19s WALL (     135 calls)
     cegterg      :    641.19s CPU    655.62s WALL (      60 calls)

     Called by sum_band:
     sum_band:bec :      0.26s CPU      0.26s WALL (      60 calls)
     addusdens    :      1.06s CPU      1.13s WALL (      12 calls)

     Called by *egterg:
     h_psi        :    205.23s CPU    208.73s WALL (     250 calls)
     s_psi        :     50.16s CPU     50.28s WALL (     250 calls)
     g_psi        :      0.75s CPU      0.75s WALL (     185 calls)
     cdiaghg      :    255.52s CPU    263.68s WALL (     245 calls)
     cegterg:over :     59.41s CPU     61.12s WALL (     185 calls)
     cegterg:upda :     40.08s CPU     40.64s WALL (     185 calls)
     cegterg:last :     22.08s CPU     22.18s WALL (      60 calls)
     cdiaghg:chol :     11.86s CPU     12.48s WALL (     245 calls)
     cdiaghg:inve :      3.63s CPU      3.73s WALL (     245 calls)
     cdiaghg:para :     59.77s CPU     64.90s WALL (     490 calls)

     Called by h_psi:
     h_psi:pot    :    203.62s CPU    206.01s WALL (     250 calls)
     h_psi:calbec :     51.40s CPU     52.90s WALL (     250 calls)
     vloc_psi     :    101.74s CPU    102.42s WALL (     250 calls)
     add_vuspsi   :     50.46s CPU     50.69s WALL (     250 calls)

     General routines
     calbec       :     82.07s CPU     84.30s WALL (     335 calls)
     fft          :      1.30s CPU      3.36s WALL (     192 calls)
     ffts         :      0.06s CPU      0.06s WALL (      25 calls)
     fftw         :    117.47s CPU    118.22s WALL (  186648 calls)
     interpolate  :      0.14s CPU      0.19s WALL (      13 calls)
 
     Parallel routines
     fft_scatt_xy :     14.58s CPU     14.67s WALL (  186865 calls)
     fft_scatt_yz :     33.37s CPU     34.13s WALL (  186865 calls)
 
     PWSCF        :  15m28.32s CPU  15m59.13s WALL

 
   This run was terminated on:  22: 9: 2   8Nov2021            

=------------------------------------------------------------------------------=
   JOB DONE.
=------------------------------------------------------------------------------=
