 ANIMSTEPS  17
 CRYSTAL 
 PRIMVEC 
  3.8624070000  0.0000000000  0.0000010000
  0.0000000000  3.8624070000  0.0000010000
 -0.0000010000 -0.0000020000  4.2504600000
 PRIMCOORD   1
    5  1
Pb   -0.0000039510   -0.0000040395    0.3763527302   -0.0000043010   -0.0000072199   -0.0008693546
Ti    1.9312029519    1.9312024038    2.3296398719    0.0000011135    0.0000016125    0.0002627429
 O    1.9312073993    1.9312074363   -0.1569387346    0.0000009444    0.0000015773    0.0001194209
 O    1.9312030399   -0.0000009203    1.9558241662    0.0000010691    0.0000027842    0.0002442387
 O   -0.0000004601    1.9312064421    1.9558241662    0.0000011740    0.0000012459    0.0002429521
 PRIMCOORD   2
    5  1
Pb   -0.0001349063    0.0001347203    0.3091376592    0.0000561977   -0.0000226429    0.0113437205
Ti    1.9311965908    1.9312042710    2.3139089886   -0.0000163023    0.0000095425    0.0004385651
 O    1.9312671981    1.9311466864   -0.1561908708   -0.0000197695    0.0000067921   -0.0019512942
 O    1.9312677421   -0.0000225309    1.9681804641   -0.0000215417   -0.0000008432   -0.0049142407
 O    0.0000123688    1.9311469077    1.9681924761    0.0000014157    0.0000071515   -0.0049167507
 PRIMCOORD   3
    5  1
Pb    0.0006101172   -0.0001142581    0.2468801285   -0.0001046269    0.0000363680    0.0183874531
Ti    1.9311167420    1.9312420053    2.3045788235    0.0000622695   -0.0000211537    0.0015706725
 O    1.9309917175    1.9312395258   -0.1478683376    0.0000176921   -0.0000078867   -0.0035001766
 O    1.9310039533    0.0000105205    1.9901125678    0.0000108095    0.0000009081   -0.0082273800
 O   -0.0001135319    1.9312318648    1.9901238705    0.0000138558   -0.0000082356   -0.0082305691
 PRIMCOORD   4
    5  1
Pb    0.0005009101    0.0000254259    0.1870768563   -0.0002364897   -0.0001230911    0.0195341658
Ti    1.9311594219    1.9312165207    2.2959534354    0.0000885618    0.0000393786    0.0047732662
 O    1.9310159330    1.9311914901   -0.1378152209    0.0000635806    0.0000328832   -0.0049176119
 O    1.9310158496   -0.0000121194    2.0148230958    0.0000546954    0.0000221346   -0.0096948610
 O   -0.0000831142    1.9311882053    2.0148215756    0.0000296519    0.0000286947   -0.0096949590
 PRIMCOORD   5
    5  1
Pb    0.0000182316   -0.0000011655    0.1290112643    0.0007306281    0.0003843407    0.0207151811
Ti    1.9312325491    1.9312146017    2.2838798257   -0.0002331211   -0.0001217558    0.0077801017
 O    1.9311844423    1.9311984701   -0.1259372572   -0.0001968362   -0.0001033629   -0.0072346312
 O    1.9311805364   -0.0000000201    2.0407516159   -0.0001863565   -0.0000613117   -0.0106307991
 O   -0.0000067573    1.9311975820    2.0407485492   -0.0001143142   -0.0000979103   -0.0106298526
 PRIMCOORD   6
    5  1
Pb    0.0000086743   -0.0000093449    0.0746961882    0.0000014424    0.0000050929    0.0177529012
Ti    1.9312064159    1.9312001124    2.2623544545   -0.0000000514   -0.0000019396    0.0158134675
 O    1.9311999286    1.9312078567   -0.1080754095   -0.0000004941   -0.0000012640   -0.0127728754
 O    1.9311975688    0.0000024490    2.0671440519   -0.0000006808   -0.0000009311   -0.0103966644
 O   -0.0000035845    1.9312083744    2.0671455826   -0.0000002162   -0.0000009583   -0.0103968288
 PRIMCOORD   7
    5  1
Pb    0.0000138469    0.0000006146    0.0345989616   -0.0000058755   -0.0000059482    0.0119869447
Ti    1.9312063684    1.9311979598    2.2231686731    0.0000025466    0.0000017471    0.0234250515
 O    1.9311979483    1.9312048709   -0.0781705770    0.0000011363    0.0000013065   -0.0181972067
 O    1.9311958170    0.0000007017    2.0902822947    0.0000009456    0.0000013511   -0.0086074948
 O   -0.0000049768    1.9312052963    2.0902814508    0.0000012469    0.0000015436   -0.0086072948
 PRIMCOORD   8
    5  1
Pb    0.0000125162    0.0000001471    0.0119936305   -0.0000001237    0.0000002269    0.0049218634
Ti    1.9312080119    1.9311979401    2.1730218324    0.0000011440   -0.0000000482    0.0175534096
 O    1.9311977059    1.9312048347   -0.0410957455   -0.0000002540   -0.0000001647   -0.0129883878
 O    1.9311958304    0.0000011249    2.1075002541   -0.0000004745   -0.0000000185   -0.0047434127
 O   -0.0000050600    1.9312053956    2.1075003285   -0.0000002918    0.0000000046   -0.0047434725
 PRIMCOORD   9
    5  1
Pb    0.0000124156   -0.0000069178   -0.0020267620    0.0000511125   -0.0001086075   -0.0020711341
Ti    1.9312077504    1.9312004145    2.1192753839   -0.0000211766    0.0000407725   -0.0000643593
 O    1.9311975323    1.9312068672   -0.0020880109   -0.0000127184    0.0000281848    0.0007502645
 O    1.9311959025    0.0000018197    2.1215716595   -0.0000119996    0.0000140133    0.0006913454
 O   -0.0000045959    1.9312072586    2.1215682108   -0.0000052179    0.0000256369    0.0006938836
 PRIMCOORD  10
    5  1
Pb    0.0000389134    0.0000081569   -0.0177175663   -0.0000109874   -0.0000034680   -0.0036517378
Ti    1.9312016364    1.9311960144    2.0668417114    0.0000065064    0.0000016026   -0.0190651347
 O    1.9311893707    1.9312023289    0.0372527338    0.0000017001    0.0000005589    0.0133414572
 O    1.9311885384   -0.0000001177    2.1363657802    0.0000013944    0.0000005087    0.0046877410
 O   -0.0000094544    1.9312030591    2.1363642702    0.0000013865    0.0000007978    0.0046876743
 PRIMCOORD  11
    5  1
Pb    0.0000165266    0.0000024142   -0.0362289138   -0.0000024627   -0.0000010675   -0.0096126589
Ti    1.9312057207    1.9311982690    2.0155439075    0.0000020479    0.0000007059   -0.0232157324
 O    1.9311968927    1.9312040161    0.0744763432    0.0000002633   -0.0000000061    0.0172358619
 O    1.9311950499    0.0000002498    2.1535123882   -0.0000000136    0.0000001670    0.0077962683
 O   -0.0000051860    1.9312044907    2.1535106301    0.0000001650    0.0000002007    0.0077962612
 PRIMCOORD  12
    5  1
Pb    0.0000108166   -0.0000032793   -0.0771374165    0.0000009757    0.0000016465   -0.0179616773
Ti    1.9312063069    1.9312003883    1.9796540760    0.0000001872   -0.0000005203   -0.0141865821
 O    1.9311989453    1.9312053901    0.1042941616   -0.0000003534   -0.0000004871    0.0119187901
 O    1.9311967939    0.0000009285    2.1786264272   -0.0000005790   -0.0000003006    0.0101146233
 O   -0.0000038596    1.9312060032    2.1786236032   -0.0000002305   -0.0000003385    0.0101148461
 PRIMCOORD  13
    5  1
Pb   -0.0000009044   -0.0000306977   -0.1312385912   -0.0000253946   -0.0000843418   -0.0211918033
Ti    1.9312052912    1.9311975356    1.9620467236    0.0000109667    0.0000351922   -0.0067474046
 O    1.9312032459    1.9312148253    0.1229194888    0.0000072426    0.0000240101    0.0068054661
 O    1.9312011104    0.0000112911    2.2067861037    0.0000070515    0.0000010610    0.0105668993
 O    0.0000002592    1.9312164494    2.2067843435    0.0000001338    0.0000240784    0.0105668425
 PRIMCOORD  14
    5  1
Pb   -0.0004407307    0.0004948663   -0.1885308023    0.0003190509   -0.0003942055   -0.0203225012
Ti    1.9314042231    1.9309502661    1.9528207984   -0.0001410977    0.0001738029   -0.0042040949
 O    1.9312983777    1.9311033144    0.1359141234   -0.0000591823    0.0000740256    0.0049779321
 O    1.9312809993   -0.0000668423    2.2340307218   -0.0000586674    0.0000720254    0.0097737709
 O    0.0000661324    1.9311277397    2.2340160859   -0.0000601035    0.0000743516    0.0097748931
 PRIMCOORD  15
    5  1
Pb    0.0001830167   -0.0002832069   -0.2472448724    0.0010743096   -0.0011930423   -0.0184616264
Ti    1.9314032639    1.9309721292    1.9448870380   -0.0003817883    0.0004260152   -0.0015077241
 O    1.9310597443    1.9313975830    0.1470031005   -0.0002538771    0.0002812951    0.0036092268
 O    1.9310339459    0.0000982721    2.2597798543   -0.0002654752    0.0001892461    0.0081791459
 O   -0.0000709678    1.9314244247    2.2597664886   -0.0001731691    0.0002964859    0.0081809778
 PRIMCOORD  16
    5  1
Pb    0.0008684705   -0.0010348233   -0.3090647402   -0.0007671804    0.0008102896   -0.0115502806
Ti    1.9311458029    1.9312639811    1.9359877648    0.0002732776   -0.0002896301   -0.0002188952
 O    1.9308865697    1.9315864294    0.1558404148    0.0001878906   -0.0001972975    0.0019979283
 O    1.9308908372    0.0002186973    2.2821977849    0.0001862560   -0.0001292030    0.0048856604
 O   -0.0001826732    1.9315745163    2.2821963364    0.0001197562   -0.0001941589    0.0048855871
 PRIMCOORD  17
    5  1
Pb    0.0000078133    0.0000001770   -0.3762719715   -0.0000058434   -0.0000021108    0.0007932072
Ti    1.9312030481    1.9312025962    1.9208178777    0.0000015308    0.0000003958   -0.0002093467
 O    1.9311996007    1.9312034262    0.1569109814    0.0000019034    0.0000002244   -0.0001376428
 O    1.9311990977   -0.0000010797    2.2946155815    0.0000022349    0.0000007911   -0.0002197333
 O   -0.0000005399    1.9312024203    2.2946113310    0.0000001743    0.0000006995   -0.0002264844
