
     Program PWSCF v.6.4.1 starts on 16Jun2022 at 20: 5:22 

     This program is part of the open-source Quantum ESPRESSO suite
     for quantum simulation of materials; please cite
         "P. Giannozzi et al., J. Phys.:Condens. Matter 21 395502 (2009);
         "P. Giannozzi et al., J. Phys.:Condens. Matter 29 465901 (2017);
          URL http://www.quantum-espresso.org", 
     in publications or presentations arising from this work. More details at
     http://www.quantum-espresso.org/quote

     Parallel version (MPI), running on    64 processors

     MPI processes distributed on     1 nodes
     K-points division:     npool     =       4
     R & G space division:  proc/nbgrp/npool/nimage =      16
     Waiting for input...
     Reading input from standard input

     Current dimensions of program PWSCF are:
     Max number of different atomic species (ntypx) = 10
     Max number of k-points (npk) =  40000
     Max angular momentum in pseudopotentials (lmaxx) =  3

     Subspace diagonalization in iterative solution of the eigenvalue problem:
     one sub-group per band group will be used
     scalapack distributed-memory algorithm (size of sub-group:  2*  2 procs)

 
     Parallelization info
     --------------------
     sticks:   dense  smooth     PW     G-vecs:    dense   smooth      PW
     Min         103      55     17                 4683     1827     315
     Max         104      56     19                 4692     1830     318
     Sum        1663     889    283                75013    29245    5061
 


     bravais-lattice index     =            0
     lattice parameter (alat)  =       6.3523  a.u.
     unit-cell volume          =     302.3197 (a.u.)^3
     number of atoms/cell      =            4
     number of atomic types    =            3
     number of electrons       =        42.00
     number of Kohn-Sham states=           21
     kinetic-energy cutoff     =      80.0000  Ry
     charge density cutoff     =     600.0000  Ry
     convergence threshold     =      1.0E-06
     mixing beta               =       0.5000
     number of iterations used =            8  plain     mixing
     Exchange-correlation      = SLA  PW   PSX  PSC ( 1  4 10  8 0 0)
     Using LIBXC version       =    4   3   4
     nstep                     =          200


     celldm(1)=   6.352267  celldm(2)=   0.000000  celldm(3)=   0.000000
     celldm(4)=   0.000000  celldm(5)=   0.000000  celldm(6)=   0.000000

     crystal axes: (cart. coord. in units of alat)
               a(1) = (   1.000000   0.000000   0.000000 )  
               a(2) = (  -0.500000   0.866025  -0.000000 )  
               a(3) = (  -0.000000   0.000000   1.361914 )  

     reciprocal axes: (cart. coord. in units 2 pi/alat)
               b(1) = (  1.000000  0.577350  0.000000 )  
               b(2) = ( -0.000000  1.154700 -0.000000 )  
               b(3) = ( -0.000000 -0.000000  0.734261 )  


     PseudoPot. # 1 for Mg read from file:
     ./GBRV_PBEsol/mg_pbesol_v1.4.uspp.F.UPF
     MD5 check sum: 4059f37963cf5867752dbf5ab2400678
     Pseudo is Ultrasoft, Zval = 10.0
     Generated by new atomic code, or converted to UPF format
     Using radial grid of  821 points,  7 beta functions with: 
                l(1) =   0
                l(2) =   0
                l(3) =   0
                l(4) =   1
                l(5) =   1
                l(6) =   2
                l(7) =   2
     Q(r) pseudized with  8 coefficients,  rinner =    1.200   1.200   1.200
                                                       1.200   1.200

     PseudoPot. # 2 for Zn read from file:
     ./GBRV_PBEsol/zn_pbesol_v1.uspp.F.UPF
     MD5 check sum: 7d8615e52efe7c1e2b1899de8658bae2
     Pseudo is Ultrasoft, Zval = 20.0
     Generated by new atomic code, or converted to UPF format
     Using radial grid of  943 points,  6 beta functions with: 
                l(1) =   0
                l(2) =   0
                l(3) =   1
                l(4) =   1
                l(5) =   2
                l(6) =   2
     Q(r) pseudized with  8 coefficients,  rinner =    1.100   1.100   1.100
                                                       1.100   1.100

     PseudoPot. # 3 for O  read from file:
     ./GBRV_PBEsol/o_pbesol_v1.2.uspp.F.UPF
     MD5 check sum: 501638753501ef6325af9037351f7734
     Pseudo is Ultrasoft + core correction, Zval =  6.0
     Generated by new atomic code, or converted to UPF format
     Using radial grid of  737 points,  5 beta functions with: 
                l(1) =   0
                l(2) =   0
                l(3) =   1
                l(4) =   1
                l(5) =   2
     Q(r) pseudized with  8 coefficients,  rinner =    0.900   0.900   0.900
                                                       0.900   0.900

     atomic species   valence    mass     pseudopotential
        Mg            10.00    24.30500     Mg( 1.00)
        Zn            20.00    65.38000     Zn( 1.00)
        O              6.00    15.99900     O ( 1.00)

     No symmetry found


                                    s                        frac. trans.

      isym =  1     identity                                     

 cryst.   s( 1) = (     1          0          0      )
                  (     0          1          0      )
                  (     0          0          1      )

 cart.    s( 1) = (  1.0000000 -0.0000000 -0.0000000 )
                  ( -0.0000000  1.0000000  0.0000000 )
                  (  0.0000000 -0.0000000  1.0000000 )


   Cartesian axes

     site n.     atom                  positions (alat units)
         1           O   tau(   1) = (   0.5000002   0.2886756   0.0100044  )
         2           O   tau(   2) = (   0.0000002   0.5773495   0.6909611  )
         3           Zn  tau(   3) = (   0.5000000   0.2886749   0.7817301  )
         4           Mg  tau(   4) = (  -0.0000002   0.5773512   1.4671603  )

   Crystallographic axes

     site n.     atom                  positions (cryst. coord.)
         1           O   tau(   1) = (  0.6666670  0.3333337  0.0073459  )
         2           O   tau(   2) = (  0.3333329  0.6666657  0.5073458  )
         3           Zn  tau(   3) = (  0.6666664  0.3333329  0.5739939  )
         4           Mg  tau(   4) = (  0.3333336  0.6666677  1.0772785  )

     number of k points=   260
                       cart. coord. in units 2pi/alat
        k(    1) = (   0.0000000   0.0000000   0.0000000), wk =   0.0039062
        k(    2) = (  -0.0000000  -0.0000000   0.0917826), wk =   0.0078125
        k(    3) = (  -0.0000000  -0.0000000   0.1835652), wk =   0.0078125
        k(    4) = (  -0.0000000  -0.0000000   0.2753479), wk =   0.0078125
        k(    5) = (   0.0000000   0.0000000  -0.3671305), wk =   0.0039062
        k(    6) = (  -0.0000000   0.1443376  -0.0000000), wk =   0.0078125
        k(    7) = (  -0.0000000   0.1443376   0.0917826), wk =   0.0078125
        k(    8) = (  -0.0000000   0.1443376   0.1835652), wk =   0.0078125
        k(    9) = (  -0.0000000   0.1443376   0.2753479), wk =   0.0078125
        k(   10) = (  -0.0000000   0.1443376  -0.3671305), wk =   0.0078125
        k(   11) = (  -0.0000000   0.1443376  -0.2753479), wk =   0.0078125
        k(   12) = (  -0.0000000   0.1443376  -0.1835652), wk =   0.0078125
        k(   13) = (  -0.0000000   0.1443376  -0.0917826), wk =   0.0078125
        k(   14) = (  -0.0000001   0.2886751  -0.0000000), wk =   0.0078125
        k(   15) = (  -0.0000001   0.2886751   0.0917826), wk =   0.0078125
        k(   16) = (  -0.0000001   0.2886751   0.1835652), wk =   0.0078125
        k(   17) = (  -0.0000001   0.2886751   0.2753479), wk =   0.0078125
        k(   18) = (  -0.0000001   0.2886751  -0.3671305), wk =   0.0078125
        k(   19) = (  -0.0000001   0.2886751  -0.2753479), wk =   0.0078125
        k(   20) = (  -0.0000001   0.2886751  -0.1835652), wk =   0.0078125
        k(   21) = (  -0.0000001   0.2886751  -0.0917826), wk =   0.0078125
        k(   22) = (  -0.0000001   0.4330127  -0.0000000), wk =   0.0078125
        k(   23) = (  -0.0000001   0.4330127   0.0917826), wk =   0.0078125
        k(   24) = (  -0.0000001   0.4330127   0.1835652), wk =   0.0078125
        k(   25) = (  -0.0000001   0.4330127   0.2753479), wk =   0.0078125
        k(   26) = (  -0.0000001   0.4330127  -0.3671305), wk =   0.0078125
        k(   27) = (  -0.0000001   0.4330127  -0.2753479), wk =   0.0078125
        k(   28) = (  -0.0000001   0.4330127  -0.1835652), wk =   0.0078125
        k(   29) = (  -0.0000001   0.4330127  -0.0917826), wk =   0.0078125
        k(   30) = (   0.0000001  -0.5773502   0.0000000), wk =   0.0039062
        k(   31) = (   0.0000001  -0.5773502   0.0917826), wk =   0.0078125
        k(   32) = (   0.0000001  -0.5773502   0.1835652), wk =   0.0078125
        k(   33) = (   0.0000001  -0.5773502   0.2753479), wk =   0.0078125
        k(   34) = (   0.0000001  -0.5773502  -0.3671305), wk =   0.0039062
        k(   35) = (   0.1250000   0.0721688   0.0000000), wk =   0.0078125
        k(   36) = (   0.1250000   0.0721688   0.0917826), wk =   0.0078125
        k(   37) = (   0.1250000   0.0721688   0.1835652), wk =   0.0078125
        k(   38) = (   0.1250000   0.0721688   0.2753479), wk =   0.0078125
        k(   39) = (   0.1250000   0.0721688  -0.3671305), wk =   0.0078125
        k(   40) = (   0.1250000   0.0721688  -0.2753479), wk =   0.0078125
        k(   41) = (   0.1250000   0.0721688  -0.1835652), wk =   0.0078125
        k(   42) = (   0.1250000   0.0721688  -0.0917826), wk =   0.0078125
        k(   43) = (   0.1250000   0.2165063   0.0000000), wk =   0.0078125
        k(   44) = (   0.1250000   0.2165063   0.0917826), wk =   0.0078125
        k(   45) = (   0.1250000   0.2165063   0.1835652), wk =   0.0078125
        k(   46) = (   0.1249999   0.2165063   0.2753479), wk =   0.0078125
        k(   47) = (   0.1250000   0.2165063  -0.3671305), wk =   0.0078125
        k(   48) = (   0.1250000   0.2165063  -0.2753479), wk =   0.0078125
        k(   49) = (   0.1250000   0.2165063  -0.1835652), wk =   0.0078125
        k(   50) = (   0.1250000   0.2165063  -0.0917826), wk =   0.0078125
        k(   51) = (   0.1249999   0.3608439   0.0000000), wk =   0.0078125
        k(   52) = (   0.1249999   0.3608439   0.0917826), wk =   0.0078125
        k(   53) = (   0.1249999   0.3608439   0.1835652), wk =   0.0078125
        k(   54) = (   0.1249999   0.3608439   0.2753479), wk =   0.0078125
        k(   55) = (   0.1249999   0.3608439  -0.3671305), wk =   0.0078125
        k(   56) = (   0.1249999   0.3608439  -0.2753479), wk =   0.0078125
        k(   57) = (   0.1249999   0.3608439  -0.1835652), wk =   0.0078125
        k(   58) = (   0.1249999   0.3608439  -0.0917826), wk =   0.0078125
        k(   59) = (   0.1249999   0.5051814   0.0000000), wk =   0.0078125
        k(   60) = (   0.1249999   0.5051814   0.0917826), wk =   0.0078125
        k(   61) = (   0.1249999   0.5051814   0.1835652), wk =   0.0078125
        k(   62) = (   0.1249999   0.5051814   0.2753479), wk =   0.0078125
        k(   63) = (   0.1249999   0.5051814  -0.3671305), wk =   0.0078125
        k(   64) = (   0.1249999   0.5051814  -0.2753479), wk =   0.0078125
        k(   65) = (   0.1249999   0.5051814  -0.1835652), wk =   0.0078125
        k(   66) = (   0.1249999   0.5051814  -0.0917826), wk =   0.0078125
        k(   67) = (   0.1250001  -0.5051815   0.0000000), wk =   0.0078125
        k(   68) = (   0.1250001  -0.5051815   0.0917826), wk =   0.0078125
        k(   69) = (   0.1250001  -0.5051815   0.1835653), wk =   0.0078125
        k(   70) = (   0.1250001  -0.5051815   0.2753479), wk =   0.0078125
        k(   71) = (   0.1250001  -0.5051815  -0.3671305), wk =   0.0078125
        k(   72) = (   0.1250001  -0.5051815  -0.2753478), wk =   0.0078125
        k(   73) = (   0.1250001  -0.5051815  -0.1835652), wk =   0.0078125
        k(   74) = (   0.1250001  -0.5051815  -0.0917826), wk =   0.0078125
        k(   75) = (   0.1250001  -0.3608439   0.0000000), wk =   0.0078125
        k(   76) = (   0.1250001  -0.3608439   0.0917826), wk =   0.0078125
        k(   77) = (   0.1250001  -0.3608439   0.1835652), wk =   0.0078125
        k(   78) = (   0.1250001  -0.3608439   0.2753479), wk =   0.0078125
        k(   79) = (   0.1250001  -0.3608439  -0.3671305), wk =   0.0078125
        k(   80) = (   0.1250001  -0.3608439  -0.2753478), wk =   0.0078125
        k(   81) = (   0.1250001  -0.3608439  -0.1835652), wk =   0.0078125
        k(   82) = (   0.1250001  -0.3608439  -0.0917826), wk =   0.0078125
        k(   83) = (   0.1250000  -0.2165064   0.0000000), wk =   0.0078125
        k(   84) = (   0.1250000  -0.2165064   0.0917826), wk =   0.0078125
        k(   85) = (   0.1250000  -0.2165064   0.1835652), wk =   0.0078125
        k(   86) = (   0.1250000  -0.2165064   0.2753479), wk =   0.0078125
        k(   87) = (   0.1250001  -0.2165064  -0.3671305), wk =   0.0078125
        k(   88) = (   0.1250001  -0.2165064  -0.2753478), wk =   0.0078125
        k(   89) = (   0.1250000  -0.2165064  -0.1835652), wk =   0.0078125
        k(   90) = (   0.1250000  -0.2165064  -0.0917826), wk =   0.0078125
        k(   91) = (   0.1250000  -0.0721688   0.0000000), wk =   0.0078125
        k(   92) = (   0.1250000  -0.0721688   0.0917826), wk =   0.0078125
        k(   93) = (   0.1250000  -0.0721688   0.1835652), wk =   0.0078125
        k(   94) = (   0.1250000  -0.0721688   0.2753479), wk =   0.0078125
        k(   95) = (   0.1250000  -0.0721688  -0.3671305), wk =   0.0078125
        k(   96) = (   0.1250000  -0.0721688  -0.2753479), wk =   0.0078125
        k(   97) = (   0.1250000  -0.0721688  -0.1835652), wk =   0.0078125
        k(   98) = (   0.1250000  -0.0721688  -0.0917826), wk =   0.0078125
        k(   99) = (   0.2500000   0.1443375   0.0000000), wk =   0.0078125
        k(  100) = (   0.2500000   0.1443375   0.0917826), wk =   0.0078125
        k(  101) = (   0.2500000   0.1443375   0.1835653), wk =   0.0078125
        k(  102) = (   0.2500000   0.1443375   0.2753479), wk =   0.0078125
        k(  103) = (   0.2500000   0.1443375  -0.3671305), wk =   0.0078125
        k(  104) = (   0.2500000   0.1443375  -0.2753478), wk =   0.0078125
        k(  105) = (   0.2500000   0.1443375  -0.1835652), wk =   0.0078125
        k(  106) = (   0.2500000   0.1443375  -0.0917826), wk =   0.0078125
        k(  107) = (   0.2499999   0.2886751   0.0000000), wk =   0.0078125
        k(  108) = (   0.2499999   0.2886751   0.0917826), wk =   0.0078125
        k(  109) = (   0.2499999   0.2886751   0.1835652), wk =   0.0078125
        k(  110) = (   0.2499999   0.2886751   0.2753479), wk =   0.0078125
        k(  111) = (   0.2499999   0.2886751  -0.3671305), wk =   0.0078125
        k(  112) = (   0.2499999   0.2886751  -0.2753478), wk =   0.0078125
        k(  113) = (   0.2499999   0.2886751  -0.1835652), wk =   0.0078125
        k(  114) = (   0.2499999   0.2886751  -0.0917826), wk =   0.0078125
        k(  115) = (   0.2499999   0.4330126   0.0000000), wk =   0.0078125
        k(  116) = (   0.2499999   0.4330126   0.0917826), wk =   0.0078125
        k(  117) = (   0.2499999   0.4330126   0.1835652), wk =   0.0078125
        k(  118) = (   0.2499999   0.4330126   0.2753479), wk =   0.0078125
        k(  119) = (   0.2499999   0.4330126  -0.3671305), wk =   0.0078125
        k(  120) = (   0.2499999   0.4330126  -0.2753478), wk =   0.0078125
        k(  121) = (   0.2499999   0.4330126  -0.1835652), wk =   0.0078125
        k(  122) = (   0.2499999   0.4330126  -0.0917826), wk =   0.0078125
        k(  123) = (   0.2499999   0.5773502   0.0000000), wk =   0.0078125
        k(  124) = (   0.2499999   0.5773502   0.0917826), wk =   0.0078125
        k(  125) = (   0.2499999   0.5773502   0.1835652), wk =   0.0078125
        k(  126) = (   0.2499999   0.5773502   0.2753479), wk =   0.0078125
        k(  127) = (   0.2499999   0.5773502  -0.3671305), wk =   0.0078125
        k(  128) = (   0.2499999   0.5773502  -0.2753479), wk =   0.0078125
        k(  129) = (   0.2499999   0.5773502  -0.1835652), wk =   0.0078125
        k(  130) = (   0.2499999   0.5773502  -0.0917826), wk =   0.0078125
        k(  131) = (   0.2500001  -0.4330127   0.0000000), wk =   0.0078125
        k(  132) = (   0.2500001  -0.4330127   0.0917826), wk =   0.0078125
        k(  133) = (   0.2500001  -0.4330127   0.1835653), wk =   0.0078125
        k(  134) = (   0.2500001  -0.4330127   0.2753479), wk =   0.0078125
        k(  135) = (   0.2500001  -0.4330127  -0.3671305), wk =   0.0078125
        k(  136) = (   0.2500001  -0.4330127  -0.2753478), wk =   0.0078125
        k(  137) = (   0.2500001  -0.4330127  -0.1835652), wk =   0.0078125
        k(  138) = (   0.2500001  -0.4330127  -0.0917826), wk =   0.0078125
        k(  139) = (   0.2500001  -0.2886752   0.0000000), wk =   0.0078125
        k(  140) = (   0.2500001  -0.2886752   0.0917826), wk =   0.0078125
        k(  141) = (   0.2500001  -0.2886752   0.1835653), wk =   0.0078125
        k(  142) = (   0.2500001  -0.2886752   0.2753479), wk =   0.0078125
        k(  143) = (   0.2500001  -0.2886752  -0.3671305), wk =   0.0078125
        k(  144) = (   0.2500001  -0.2886752  -0.2753478), wk =   0.0078125
        k(  145) = (   0.2500001  -0.2886752  -0.1835652), wk =   0.0078125
        k(  146) = (   0.2500001  -0.2886752  -0.0917826), wk =   0.0078125
        k(  147) = (   0.2500000  -0.1443376   0.0000000), wk =   0.0078125
        k(  148) = (   0.2500000  -0.1443376   0.0917826), wk =   0.0078125
        k(  149) = (   0.2500000  -0.1443376   0.1835653), wk =   0.0078125
        k(  150) = (   0.2500000  -0.1443376   0.2753479), wk =   0.0078125
        k(  151) = (   0.2500000  -0.1443376  -0.3671305), wk =   0.0078125
        k(  152) = (   0.2500000  -0.1443376  -0.2753478), wk =   0.0078125
        k(  153) = (   0.2500000  -0.1443376  -0.1835652), wk =   0.0078125
        k(  154) = (   0.2500000  -0.1443376  -0.0917826), wk =   0.0078125
        k(  155) = (   0.2500000  -0.0000001   0.0000000), wk =   0.0078125
        k(  156) = (   0.2500000  -0.0000001   0.0917826), wk =   0.0078125
        k(  157) = (   0.2500000  -0.0000001   0.1835653), wk =   0.0078125
        k(  158) = (   0.2500000  -0.0000001   0.2753479), wk =   0.0078125
        k(  159) = (   0.2500000  -0.0000000  -0.3671305), wk =   0.0078125
        k(  160) = (   0.2500000  -0.0000000  -0.2753478), wk =   0.0078125
        k(  161) = (   0.2500000  -0.0000001  -0.1835652), wk =   0.0078125
        k(  162) = (   0.2500000  -0.0000001  -0.0917826), wk =   0.0078125
        k(  163) = (   0.3750000   0.2165063   0.0000000), wk =   0.0078125
        k(  164) = (   0.3750000   0.2165063   0.0917826), wk =   0.0078125
        k(  165) = (   0.3750000   0.2165063   0.1835653), wk =   0.0078125
        k(  166) = (   0.3749999   0.2165063   0.2753479), wk =   0.0078125
        k(  167) = (   0.3750000   0.2165063  -0.3671305), wk =   0.0078125
        k(  168) = (   0.3750000   0.2165063  -0.2753478), wk =   0.0078125
        k(  169) = (   0.3750000   0.2165063  -0.1835652), wk =   0.0078125
        k(  170) = (   0.3750000   0.2165063  -0.0917826), wk =   0.0078125
        k(  171) = (   0.3749999   0.3608438   0.0000000), wk =   0.0078125
        k(  172) = (   0.3749999   0.3608438   0.0917826), wk =   0.0078125
        k(  173) = (   0.3749999   0.3608438   0.1835653), wk =   0.0078125
        k(  174) = (   0.3749999   0.3608438   0.2753479), wk =   0.0078125
        k(  175) = (   0.3749999   0.3608438  -0.3671305), wk =   0.0078125
        k(  176) = (   0.3749999   0.3608438  -0.2753478), wk =   0.0078125
        k(  177) = (   0.3749999   0.3608438  -0.1835652), wk =   0.0078125
        k(  178) = (   0.3749999   0.3608438  -0.0917826), wk =   0.0078125
        k(  179) = (   0.3749999   0.5051814   0.0000000), wk =   0.0078125
        k(  180) = (   0.3749999   0.5051814   0.0917826), wk =   0.0078125
        k(  181) = (   0.3749999   0.5051814   0.1835653), wk =   0.0078125
        k(  182) = (   0.3749999   0.5051814   0.2753479), wk =   0.0078125
        k(  183) = (   0.3749999   0.5051814  -0.3671305), wk =   0.0078125
        k(  184) = (   0.3749999   0.5051814  -0.2753478), wk =   0.0078125
        k(  185) = (   0.3749999   0.5051814  -0.1835652), wk =   0.0078125
        k(  186) = (   0.3749999   0.5051814  -0.0917826), wk =   0.0078125
        k(  187) = (   0.3749999   0.6495189   0.0000000), wk =   0.0078125
        k(  188) = (   0.3749999   0.6495189   0.0917826), wk =   0.0078125
        k(  189) = (   0.3749999   0.6495189   0.1835653), wk =   0.0078125
        k(  190) = (   0.3749999   0.6495189   0.2753479), wk =   0.0078125
        k(  191) = (   0.3749999   0.6495189  -0.3671305), wk =   0.0078125
        k(  192) = (   0.3749999   0.6495189  -0.2753478), wk =   0.0078125
        k(  193) = (   0.3749999   0.6495189  -0.1835652), wk =   0.0078125
        k(  194) = (   0.3749999   0.6495189  -0.0917826), wk =   0.0078125
        k(  195) = (   0.3750001  -0.3608440   0.0000000), wk =   0.0078125
        k(  196) = (   0.3750001  -0.3608440   0.0917826), wk =   0.0078125
        k(  197) = (   0.3750001  -0.3608440   0.1835653), wk =   0.0078125
        k(  198) = (   0.3750001  -0.3608440   0.2753479), wk =   0.0078125
        k(  199) = (   0.3750001  -0.3608440  -0.3671305), wk =   0.0078125
        k(  200) = (   0.3750001  -0.3608440  -0.2753478), wk =   0.0078125
        k(  201) = (   0.3750001  -0.3608440  -0.1835652), wk =   0.0078125
        k(  202) = (   0.3750001  -0.3608440  -0.0917826), wk =   0.0078125
        k(  203) = (   0.3750000  -0.2165064   0.0000000), wk =   0.0078125
        k(  204) = (   0.3750000  -0.2165064   0.0917826), wk =   0.0078125
        k(  205) = (   0.3750000  -0.2165064   0.1835653), wk =   0.0078125
        k(  206) = (   0.3750000  -0.2165064   0.2753479), wk =   0.0078125
        k(  207) = (   0.3750001  -0.2165064  -0.3671305), wk =   0.0078125
        k(  208) = (   0.3750001  -0.2165064  -0.2753478), wk =   0.0078125
        k(  209) = (   0.3750000  -0.2165064  -0.1835652), wk =   0.0078125
        k(  210) = (   0.3750000  -0.2165064  -0.0917826), wk =   0.0078125
        k(  211) = (   0.3750000  -0.0721689   0.0000000), wk =   0.0078125
        k(  212) = (   0.3750000  -0.0721689   0.0917826), wk =   0.0078125
        k(  213) = (   0.3750000  -0.0721689   0.1835653), wk =   0.0078125
        k(  214) = (   0.3750000  -0.0721689   0.2753479), wk =   0.0078125
        k(  215) = (   0.3750000  -0.0721689  -0.3671305), wk =   0.0078125
        k(  216) = (   0.3750000  -0.0721689  -0.2753478), wk =   0.0078125
        k(  217) = (   0.3750000  -0.0721689  -0.1835652), wk =   0.0078125
        k(  218) = (   0.3750000  -0.0721689  -0.0917826), wk =   0.0078125
        k(  219) = (   0.3750000   0.0721687   0.0000000), wk =   0.0078125
        k(  220) = (   0.3750000   0.0721687   0.0917826), wk =   0.0078125
        k(  221) = (   0.3750000   0.0721687   0.1835653), wk =   0.0078125
        k(  222) = (   0.3750000   0.0721687   0.2753479), wk =   0.0078125
        k(  223) = (   0.3750000   0.0721687  -0.3671305), wk =   0.0078125
        k(  224) = (   0.3750000   0.0721687  -0.2753478), wk =   0.0078125
        k(  225) = (   0.3750000   0.0721687  -0.1835652), wk =   0.0078125
        k(  226) = (   0.3750000   0.0721687  -0.0917826), wk =   0.0078125
        k(  227) = (  -0.4999999  -0.2886750  -0.0000000), wk =   0.0039062
        k(  228) = (  -0.4999999  -0.2886750   0.0917826), wk =   0.0078125
        k(  229) = (  -0.4999999  -0.2886750   0.1835652), wk =   0.0078125
        k(  230) = (  -0.4999999  -0.2886750   0.2753478), wk =   0.0078125
        k(  231) = (  -0.4999999  -0.2886750  -0.3671305), wk =   0.0039062
        k(  232) = (  -0.5000000  -0.1443375  -0.0000000), wk =   0.0078125
        k(  233) = (  -0.5000000  -0.1443375   0.0917826), wk =   0.0078125
        k(  234) = (  -0.5000000  -0.1443375   0.1835652), wk =   0.0078125
        k(  235) = (  -0.5000000  -0.1443375   0.2753478), wk =   0.0078125
        k(  236) = (  -0.5000000  -0.1443375  -0.3671305), wk =   0.0078125
        k(  237) = (  -0.5000000  -0.1443375  -0.2753479), wk =   0.0078125
        k(  238) = (  -0.5000000  -0.1443375  -0.1835653), wk =   0.0078125
        k(  239) = (  -0.5000000  -0.1443375  -0.0917826), wk =   0.0078125
        k(  240) = (  -0.5000000   0.0000001  -0.0000000), wk =   0.0078125
        k(  241) = (  -0.5000000   0.0000001   0.0917826), wk =   0.0078125
        k(  242) = (  -0.5000000   0.0000001   0.1835652), wk =   0.0078125
        k(  243) = (  -0.5000000   0.0000001   0.2753478), wk =   0.0078125
        k(  244) = (  -0.5000000   0.0000001  -0.3671305), wk =   0.0078125
        k(  245) = (  -0.5000000   0.0000001  -0.2753479), wk =   0.0078125
        k(  246) = (  -0.5000000   0.0000001  -0.1835653), wk =   0.0078125
        k(  247) = (  -0.5000000   0.0000001  -0.0917826), wk =   0.0078125
        k(  248) = (  -0.5000000   0.1443377  -0.0000000), wk =   0.0078125
        k(  249) = (  -0.5000000   0.1443377   0.0917826), wk =   0.0078125
        k(  250) = (  -0.5000000   0.1443377   0.1835652), wk =   0.0078125
        k(  251) = (  -0.5000000   0.1443377   0.2753478), wk =   0.0078125
        k(  252) = (  -0.5000000   0.1443377  -0.3671305), wk =   0.0078125
        k(  253) = (  -0.5000000   0.1443377  -0.2753479), wk =   0.0078125
        k(  254) = (  -0.5000000   0.1443377  -0.1835653), wk =   0.0078125
        k(  255) = (  -0.5000000   0.1443377  -0.0917826), wk =   0.0078125
        k(  256) = (  -0.4999998  -0.8660253  -0.0000000), wk =   0.0039062
        k(  257) = (  -0.4999998  -0.8660253   0.0917826), wk =   0.0078125
        k(  258) = (  -0.4999998  -0.8660253   0.1835652), wk =   0.0078125
        k(  259) = (  -0.4999998  -0.8660253   0.2753478), wk =   0.0078125
        k(  260) = (  -0.4999998  -0.8660253  -0.3671305), wk =   0.0039062

                       cryst. coord.
        k(    1) = (   0.0000000   0.0000000   0.0000000), wk =   0.0039062
        k(    2) = (   0.0000000  -0.0000000   0.1250000), wk =   0.0078125
        k(    3) = (   0.0000000  -0.0000000   0.2500000), wk =   0.0078125
        k(    4) = (   0.0000000  -0.0000000   0.3750000), wk =   0.0078125
        k(    5) = (  -0.0000000   0.0000000  -0.5000000), wk =   0.0039062
        k(    6) = (  -0.0000000   0.1250000  -0.0000000), wk =   0.0078125
        k(    7) = (  -0.0000000   0.1250000   0.1250000), wk =   0.0078125
        k(    8) = (  -0.0000000   0.1250000   0.2500000), wk =   0.0078125
        k(    9) = (  -0.0000000   0.1250000   0.3750000), wk =   0.0078125
        k(   10) = (  -0.0000000   0.1250000  -0.5000000), wk =   0.0078125
        k(   11) = (  -0.0000000   0.1250000  -0.3750000), wk =   0.0078125
        k(   12) = (  -0.0000000   0.1250000  -0.2500000), wk =   0.0078125
        k(   13) = (  -0.0000000   0.1250000  -0.1250000), wk =   0.0078125
        k(   14) = (  -0.0000000   0.2500000  -0.0000000), wk =   0.0078125
        k(   15) = (  -0.0000000   0.2500000   0.1250000), wk =   0.0078125
        k(   16) = (  -0.0000000   0.2500000   0.2500000), wk =   0.0078125
        k(   17) = (  -0.0000000   0.2500000   0.3750000), wk =   0.0078125
        k(   18) = (  -0.0000000   0.2500000  -0.5000000), wk =   0.0078125
        k(   19) = (  -0.0000000   0.2500000  -0.3750000), wk =   0.0078125
        k(   20) = (  -0.0000000   0.2500000  -0.2500000), wk =   0.0078125
        k(   21) = (  -0.0000000   0.2500000  -0.1250000), wk =   0.0078125
        k(   22) = (  -0.0000000   0.3750000  -0.0000000), wk =   0.0078125
        k(   23) = (  -0.0000000   0.3750000   0.1250000), wk =   0.0078125
        k(   24) = (  -0.0000000   0.3750000   0.2500000), wk =   0.0078125
        k(   25) = (  -0.0000000   0.3750000   0.3750000), wk =   0.0078125
        k(   26) = (  -0.0000000   0.3750000  -0.5000000), wk =   0.0078125
        k(   27) = (  -0.0000000   0.3750000  -0.3750000), wk =   0.0078125
        k(   28) = (  -0.0000000   0.3750000  -0.2500000), wk =   0.0078125
        k(   29) = (  -0.0000000   0.3750000  -0.1250000), wk =   0.0078125
        k(   30) = (   0.0000000  -0.5000000   0.0000000), wk =   0.0039062
        k(   31) = (   0.0000000  -0.5000000   0.1250000), wk =   0.0078125
        k(   32) = (   0.0000000  -0.5000000   0.2500000), wk =   0.0078125
        k(   33) = (   0.0000000  -0.5000000   0.3750000), wk =   0.0078125
        k(   34) = (   0.0000000  -0.5000000  -0.5000000), wk =   0.0039062
        k(   35) = (   0.1250000  -0.0000000  -0.0000000), wk =   0.0078125
        k(   36) = (   0.1250000  -0.0000000   0.1250000), wk =   0.0078125
        k(   37) = (   0.1250000  -0.0000000   0.2500000), wk =   0.0078125
        k(   38) = (   0.1250000  -0.0000000   0.3750000), wk =   0.0078125
        k(   39) = (   0.1250000  -0.0000000  -0.5000000), wk =   0.0078125
        k(   40) = (   0.1250000  -0.0000000  -0.3750000), wk =   0.0078125
        k(   41) = (   0.1250000  -0.0000000  -0.2500000), wk =   0.0078125
        k(   42) = (   0.1250000  -0.0000000  -0.1250000), wk =   0.0078125
        k(   43) = (   0.1250000   0.1250000  -0.0000000), wk =   0.0078125
        k(   44) = (   0.1250000   0.1250000   0.1250000), wk =   0.0078125
        k(   45) = (   0.1250000   0.1250000   0.2500000), wk =   0.0078125
        k(   46) = (   0.1250000   0.1250000   0.3750000), wk =   0.0078125
        k(   47) = (   0.1250000   0.1250000  -0.5000000), wk =   0.0078125
        k(   48) = (   0.1250000   0.1250000  -0.3750000), wk =   0.0078125
        k(   49) = (   0.1250000   0.1250000  -0.2500000), wk =   0.0078125
        k(   50) = (   0.1250000   0.1250000  -0.1250000), wk =   0.0078125
        k(   51) = (   0.1250000   0.2500000  -0.0000000), wk =   0.0078125
        k(   52) = (   0.1250000   0.2500000   0.1250000), wk =   0.0078125
        k(   53) = (   0.1250000   0.2500000   0.2500000), wk =   0.0078125
        k(   54) = (   0.1250000   0.2500000   0.3750000), wk =   0.0078125
        k(   55) = (   0.1250000   0.2500000  -0.5000000), wk =   0.0078125
        k(   56) = (   0.1250000   0.2500000  -0.3750000), wk =   0.0078125
        k(   57) = (   0.1250000   0.2500000  -0.2500000), wk =   0.0078125
        k(   58) = (   0.1250000   0.2500000  -0.1250000), wk =   0.0078125
        k(   59) = (   0.1250000   0.3750000  -0.0000000), wk =   0.0078125
        k(   60) = (   0.1250000   0.3750000   0.1250000), wk =   0.0078125
        k(   61) = (   0.1250000   0.3750000   0.2500000), wk =   0.0078125
        k(   62) = (   0.1250000   0.3750000   0.3750000), wk =   0.0078125
        k(   63) = (   0.1250000   0.3750000  -0.5000000), wk =   0.0078125
        k(   64) = (   0.1250000   0.3750000  -0.3750000), wk =   0.0078125
        k(   65) = (   0.1250000   0.3750000  -0.2500000), wk =   0.0078125
        k(   66) = (   0.1250000   0.3750000  -0.1250000), wk =   0.0078125
        k(   67) = (   0.1250000  -0.5000000  -0.0000000), wk =   0.0078125
        k(   68) = (   0.1250000  -0.5000000   0.1250000), wk =   0.0078125
        k(   69) = (   0.1250000  -0.5000000   0.2500000), wk =   0.0078125
        k(   70) = (   0.1250000  -0.5000000   0.3750000), wk =   0.0078125
        k(   71) = (   0.1250000  -0.5000000  -0.5000000), wk =   0.0078125
        k(   72) = (   0.1250000  -0.5000000  -0.3750000), wk =   0.0078125
        k(   73) = (   0.1250000  -0.5000000  -0.2500000), wk =   0.0078125
        k(   74) = (   0.1250000  -0.5000000  -0.1250000), wk =   0.0078125
        k(   75) = (   0.1250000  -0.3750000  -0.0000000), wk =   0.0078125
        k(   76) = (   0.1250000  -0.3750000   0.1250000), wk =   0.0078125
        k(   77) = (   0.1250000  -0.3750000   0.2500000), wk =   0.0078125
        k(   78) = (   0.1250000  -0.3750000   0.3750000), wk =   0.0078125
        k(   79) = (   0.1250000  -0.3750000  -0.5000000), wk =   0.0078125
        k(   80) = (   0.1250000  -0.3750000  -0.3750000), wk =   0.0078125
        k(   81) = (   0.1250000  -0.3750000  -0.2500000), wk =   0.0078125
        k(   82) = (   0.1250000  -0.3750000  -0.1250000), wk =   0.0078125
        k(   83) = (   0.1250000  -0.2500000  -0.0000000), wk =   0.0078125
        k(   84) = (   0.1250000  -0.2500000   0.1250000), wk =   0.0078125
        k(   85) = (   0.1250000  -0.2500000   0.2500000), wk =   0.0078125
        k(   86) = (   0.1250000  -0.2500000   0.3750000), wk =   0.0078125
        k(   87) = (   0.1250000  -0.2500000  -0.5000000), wk =   0.0078125
        k(   88) = (   0.1250000  -0.2500000  -0.3750000), wk =   0.0078125
        k(   89) = (   0.1250000  -0.2500000  -0.2500000), wk =   0.0078125
        k(   90) = (   0.1250000  -0.2500000  -0.1250000), wk =   0.0078125
        k(   91) = (   0.1250000  -0.1250000  -0.0000000), wk =   0.0078125
        k(   92) = (   0.1250000  -0.1250000   0.1250000), wk =   0.0078125
        k(   93) = (   0.1250000  -0.1250000   0.2500000), wk =   0.0078125
        k(   94) = (   0.1250000  -0.1250000   0.3750000), wk =   0.0078125
        k(   95) = (   0.1250000  -0.1250000  -0.5000000), wk =   0.0078125
        k(   96) = (   0.1250000  -0.1250000  -0.3750000), wk =   0.0078125
        k(   97) = (   0.1250000  -0.1250000  -0.2500000), wk =   0.0078125
        k(   98) = (   0.1250000  -0.1250000  -0.1250000), wk =   0.0078125
        k(   99) = (   0.2500000  -0.0000000  -0.0000000), wk =   0.0078125
        k(  100) = (   0.2500000  -0.0000000   0.1250000), wk =   0.0078125
        k(  101) = (   0.2500000  -0.0000000   0.2500000), wk =   0.0078125
        k(  102) = (   0.2500000  -0.0000000   0.3750000), wk =   0.0078125
        k(  103) = (   0.2500000  -0.0000000  -0.5000000), wk =   0.0078125
        k(  104) = (   0.2500000  -0.0000000  -0.3750000), wk =   0.0078125
        k(  105) = (   0.2500000  -0.0000000  -0.2500000), wk =   0.0078125
        k(  106) = (   0.2500000  -0.0000000  -0.1250000), wk =   0.0078125
        k(  107) = (   0.2500000   0.1250000  -0.0000000), wk =   0.0078125
        k(  108) = (   0.2500000   0.1250000   0.1250000), wk =   0.0078125
        k(  109) = (   0.2500000   0.1250000   0.2500000), wk =   0.0078125
        k(  110) = (   0.2500000   0.1250000   0.3750000), wk =   0.0078125
        k(  111) = (   0.2500000   0.1250000  -0.5000000), wk =   0.0078125
        k(  112) = (   0.2500000   0.1250000  -0.3750000), wk =   0.0078125
        k(  113) = (   0.2500000   0.1250000  -0.2500000), wk =   0.0078125
        k(  114) = (   0.2500000   0.1250000  -0.1250000), wk =   0.0078125
        k(  115) = (   0.2500000   0.2500000  -0.0000000), wk =   0.0078125
        k(  116) = (   0.2500000   0.2500000   0.1250000), wk =   0.0078125
        k(  117) = (   0.2500000   0.2500000   0.2500000), wk =   0.0078125
        k(  118) = (   0.2500000   0.2500000   0.3750000), wk =   0.0078125
        k(  119) = (   0.2500000   0.2500000  -0.5000000), wk =   0.0078125
        k(  120) = (   0.2500000   0.2500000  -0.3750000), wk =   0.0078125
        k(  121) = (   0.2500000   0.2500000  -0.2500000), wk =   0.0078125
        k(  122) = (   0.2500000   0.2500000  -0.1250000), wk =   0.0078125
        k(  123) = (   0.2500000   0.3750000  -0.0000000), wk =   0.0078125
        k(  124) = (   0.2500000   0.3750000   0.1250000), wk =   0.0078125
        k(  125) = (   0.2500000   0.3750000   0.2500000), wk =   0.0078125
        k(  126) = (   0.2500000   0.3750000   0.3750000), wk =   0.0078125
        k(  127) = (   0.2500000   0.3750000  -0.5000000), wk =   0.0078125
        k(  128) = (   0.2500000   0.3750000  -0.3750000), wk =   0.0078125
        k(  129) = (   0.2500000   0.3750000  -0.2500000), wk =   0.0078125
        k(  130) = (   0.2500000   0.3750000  -0.1250000), wk =   0.0078125
        k(  131) = (   0.2500000  -0.5000000  -0.0000000), wk =   0.0078125
        k(  132) = (   0.2500000  -0.5000000   0.1250000), wk =   0.0078125
        k(  133) = (   0.2500000  -0.5000000   0.2500000), wk =   0.0078125
        k(  134) = (   0.2500000  -0.5000000   0.3750000), wk =   0.0078125
        k(  135) = (   0.2500000  -0.5000000  -0.5000000), wk =   0.0078125
        k(  136) = (   0.2500000  -0.5000000  -0.3750000), wk =   0.0078125
        k(  137) = (   0.2500000  -0.5000000  -0.2500000), wk =   0.0078125
        k(  138) = (   0.2500000  -0.5000000  -0.1250000), wk =   0.0078125
        k(  139) = (   0.2500000  -0.3750000  -0.0000000), wk =   0.0078125
        k(  140) = (   0.2500000  -0.3750000   0.1250000), wk =   0.0078125
        k(  141) = (   0.2500000  -0.3750000   0.2500000), wk =   0.0078125
        k(  142) = (   0.2500000  -0.3750000   0.3750000), wk =   0.0078125
        k(  143) = (   0.2500000  -0.3750000  -0.5000000), wk =   0.0078125
        k(  144) = (   0.2500000  -0.3750000  -0.3750000), wk =   0.0078125
        k(  145) = (   0.2500000  -0.3750000  -0.2500000), wk =   0.0078125
        k(  146) = (   0.2500000  -0.3750000  -0.1250000), wk =   0.0078125
        k(  147) = (   0.2500000  -0.2500000  -0.0000000), wk =   0.0078125
        k(  148) = (   0.2500000  -0.2500000   0.1250000), wk =   0.0078125
        k(  149) = (   0.2500000  -0.2500000   0.2500000), wk =   0.0078125
        k(  150) = (   0.2500000  -0.2500000   0.3750000), wk =   0.0078125
        k(  151) = (   0.2500000  -0.2500000  -0.5000000), wk =   0.0078125
        k(  152) = (   0.2500000  -0.2500000  -0.3750000), wk =   0.0078125
        k(  153) = (   0.2500000  -0.2500000  -0.2500000), wk =   0.0078125
        k(  154) = (   0.2500000  -0.2500000  -0.1250000), wk =   0.0078125
        k(  155) = (   0.2500000  -0.1250000  -0.0000000), wk =   0.0078125
        k(  156) = (   0.2500000  -0.1250000   0.1250000), wk =   0.0078125
        k(  157) = (   0.2500000  -0.1250000   0.2500000), wk =   0.0078125
        k(  158) = (   0.2500000  -0.1250000   0.3750000), wk =   0.0078125
        k(  159) = (   0.2500000  -0.1250000  -0.5000000), wk =   0.0078125
        k(  160) = (   0.2500000  -0.1250000  -0.3750000), wk =   0.0078125
        k(  161) = (   0.2500000  -0.1250000  -0.2500000), wk =   0.0078125
        k(  162) = (   0.2500000  -0.1250000  -0.1250000), wk =   0.0078125
        k(  163) = (   0.3750000  -0.0000000  -0.0000000), wk =   0.0078125
        k(  164) = (   0.3750000  -0.0000000   0.1250000), wk =   0.0078125
        k(  165) = (   0.3750000  -0.0000000   0.2500000), wk =   0.0078125
        k(  166) = (   0.3750000  -0.0000000   0.3750000), wk =   0.0078125
        k(  167) = (   0.3750000  -0.0000000  -0.5000000), wk =   0.0078125
        k(  168) = (   0.3750000  -0.0000000  -0.3750000), wk =   0.0078125
        k(  169) = (   0.3750000  -0.0000000  -0.2500000), wk =   0.0078125
        k(  170) = (   0.3750000  -0.0000000  -0.1250000), wk =   0.0078125
        k(  171) = (   0.3750000   0.1250000  -0.0000000), wk =   0.0078125
        k(  172) = (   0.3750000   0.1250000   0.1250000), wk =   0.0078125
        k(  173) = (   0.3750000   0.1250000   0.2500000), wk =   0.0078125
        k(  174) = (   0.3750000   0.1250000   0.3750000), wk =   0.0078125
        k(  175) = (   0.3750000   0.1250000  -0.5000000), wk =   0.0078125
        k(  176) = (   0.3750000   0.1250000  -0.3750000), wk =   0.0078125
        k(  177) = (   0.3750000   0.1250000  -0.2500000), wk =   0.0078125
        k(  178) = (   0.3750000   0.1250000  -0.1250000), wk =   0.0078125
        k(  179) = (   0.3750000   0.2500000  -0.0000000), wk =   0.0078125
        k(  180) = (   0.3750000   0.2500000   0.1250000), wk =   0.0078125
        k(  181) = (   0.3750000   0.2500000   0.2500000), wk =   0.0078125
        k(  182) = (   0.3750000   0.2500000   0.3750000), wk =   0.0078125
        k(  183) = (   0.3750000   0.2500000  -0.5000000), wk =   0.0078125
        k(  184) = (   0.3750000   0.2500000  -0.3750000), wk =   0.0078125
        k(  185) = (   0.3750000   0.2500000  -0.2500000), wk =   0.0078125
        k(  186) = (   0.3750000   0.2500000  -0.1250000), wk =   0.0078125
        k(  187) = (   0.3750000   0.3750000  -0.0000000), wk =   0.0078125
        k(  188) = (   0.3750000   0.3750000   0.1250000), wk =   0.0078125
        k(  189) = (   0.3750000   0.3750000   0.2500000), wk =   0.0078125
        k(  190) = (   0.3750000   0.3750000   0.3750000), wk =   0.0078125
        k(  191) = (   0.3750000   0.3750000  -0.5000000), wk =   0.0078125
        k(  192) = (   0.3750000   0.3750000  -0.3750000), wk =   0.0078125
        k(  193) = (   0.3750000   0.3750000  -0.2500000), wk =   0.0078125
        k(  194) = (   0.3750000   0.3750000  -0.1250000), wk =   0.0078125
        k(  195) = (   0.3750000  -0.5000000  -0.0000000), wk =   0.0078125
        k(  196) = (   0.3750000  -0.5000000   0.1250000), wk =   0.0078125
        k(  197) = (   0.3750000  -0.5000000   0.2500000), wk =   0.0078125
        k(  198) = (   0.3750000  -0.5000000   0.3750000), wk =   0.0078125
        k(  199) = (   0.3750000  -0.5000000  -0.5000000), wk =   0.0078125
        k(  200) = (   0.3750000  -0.5000000  -0.3750000), wk =   0.0078125
        k(  201) = (   0.3750000  -0.5000000  -0.2500000), wk =   0.0078125
        k(  202) = (   0.3750000  -0.5000000  -0.1250000), wk =   0.0078125
        k(  203) = (   0.3750000  -0.3750000  -0.0000000), wk =   0.0078125
        k(  204) = (   0.3750000  -0.3750000   0.1250000), wk =   0.0078125
        k(  205) = (   0.3750000  -0.3750000   0.2500000), wk =   0.0078125
        k(  206) = (   0.3750000  -0.3750000   0.3750000), wk =   0.0078125
        k(  207) = (   0.3750000  -0.3750000  -0.5000000), wk =   0.0078125
        k(  208) = (   0.3750000  -0.3750000  -0.3750000), wk =   0.0078125
        k(  209) = (   0.3750000  -0.3750000  -0.2500000), wk =   0.0078125
        k(  210) = (   0.3750000  -0.3750000  -0.1250000), wk =   0.0078125
        k(  211) = (   0.3750000  -0.2500000  -0.0000000), wk =   0.0078125
        k(  212) = (   0.3750000  -0.2500000   0.1250000), wk =   0.0078125
        k(  213) = (   0.3750000  -0.2500000   0.2500000), wk =   0.0078125
        k(  214) = (   0.3750000  -0.2500000   0.3750000), wk =   0.0078125
        k(  215) = (   0.3750000  -0.2500000  -0.5000000), wk =   0.0078125
        k(  216) = (   0.3750000  -0.2500000  -0.3750000), wk =   0.0078125
        k(  217) = (   0.3750000  -0.2500000  -0.2500000), wk =   0.0078125
        k(  218) = (   0.3750000  -0.2500000  -0.1250000), wk =   0.0078125
        k(  219) = (   0.3750000  -0.1250000  -0.0000000), wk =   0.0078125
        k(  220) = (   0.3750000  -0.1250000   0.1250000), wk =   0.0078125
        k(  221) = (   0.3750000  -0.1250000   0.2500000), wk =   0.0078125
        k(  222) = (   0.3750000  -0.1250000   0.3750000), wk =   0.0078125
        k(  223) = (   0.3750000  -0.1250000  -0.5000000), wk =   0.0078125
        k(  224) = (   0.3750000  -0.1250000  -0.3750000), wk =   0.0078125
        k(  225) = (   0.3750000  -0.1250000  -0.2500000), wk =   0.0078125
        k(  226) = (   0.3750000  -0.1250000  -0.1250000), wk =   0.0078125
        k(  227) = (  -0.5000000   0.0000000   0.0000000), wk =   0.0039062
        k(  228) = (  -0.5000000   0.0000000   0.1250000), wk =   0.0078125
        k(  229) = (  -0.5000000   0.0000000   0.2500000), wk =   0.0078125
        k(  230) = (  -0.5000000   0.0000000   0.3750000), wk =   0.0078125
        k(  231) = (  -0.5000000   0.0000000  -0.5000000), wk =   0.0039062
        k(  232) = (  -0.5000000   0.1250000   0.0000000), wk =   0.0078125
        k(  233) = (  -0.5000000   0.1250000   0.1250000), wk =   0.0078125
        k(  234) = (  -0.5000000   0.1250000   0.2500000), wk =   0.0078125
        k(  235) = (  -0.5000000   0.1250000   0.3750000), wk =   0.0078125
        k(  236) = (  -0.5000000   0.1250000  -0.5000000), wk =   0.0078125
        k(  237) = (  -0.5000000   0.1250000  -0.3750000), wk =   0.0078125
        k(  238) = (  -0.5000000   0.1250000  -0.2500000), wk =   0.0078125
        k(  239) = (  -0.5000000   0.1250000  -0.1250000), wk =   0.0078125
        k(  240) = (  -0.5000000   0.2500000   0.0000000), wk =   0.0078125
        k(  241) = (  -0.5000000   0.2500000   0.1250000), wk =   0.0078125
        k(  242) = (  -0.5000000   0.2500000   0.2500000), wk =   0.0078125
        k(  243) = (  -0.5000000   0.2500000   0.3750000), wk =   0.0078125
        k(  244) = (  -0.5000000   0.2500000  -0.5000000), wk =   0.0078125
        k(  245) = (  -0.5000000   0.2500000  -0.3750000), wk =   0.0078125
        k(  246) = (  -0.5000000   0.2500000  -0.2500000), wk =   0.0078125
        k(  247) = (  -0.5000000   0.2500000  -0.1250000), wk =   0.0078125
        k(  248) = (  -0.5000000   0.3750000  -0.0000000), wk =   0.0078125
        k(  249) = (  -0.5000000   0.3750000   0.1250000), wk =   0.0078125
        k(  250) = (  -0.5000000   0.3750000   0.2500000), wk =   0.0078125
        k(  251) = (  -0.5000000   0.3750000   0.3750000), wk =   0.0078125
        k(  252) = (  -0.5000000   0.3750000  -0.5000000), wk =   0.0078125
        k(  253) = (  -0.5000000   0.3750000  -0.3750000), wk =   0.0078125
        k(  254) = (  -0.5000000   0.3750000  -0.2500000), wk =   0.0078125
        k(  255) = (  -0.5000000   0.3750000  -0.1250000), wk =   0.0078125
        k(  256) = (  -0.5000000  -0.5000000   0.0000000), wk =   0.0039062
        k(  257) = (  -0.5000000  -0.5000000   0.1250000), wk =   0.0078125
        k(  258) = (  -0.5000000  -0.5000000   0.2500000), wk =   0.0078125
        k(  259) = (  -0.5000000  -0.5000000   0.3750000), wk =   0.0078125
        k(  260) = (  -0.5000000  -0.5000000  -0.5000000), wk =   0.0039062

     Dense  grid:    75013 G-vectors     FFT dimensions: (  50,  50,  72)

     Smooth grid:    29245 G-vectors     FFT dimensions: (  40,  40,  50)

     Dynamical RAM for                 wfc:       0.07 MB

     Dynamical RAM for     wfc (w. buffer):       4.82 MB

     Dynamical RAM for           str. fact:       0.21 MB

     Dynamical RAM for           local pot:       0.00 MB

     Dynamical RAM for          nlocal pot:       0.22 MB

     Dynamical RAM for                qrad:      15.89 MB

     Dynamical RAM for          rho,v,vnew:       0.50 MB

     Dynamical RAM for               rhoin:       0.17 MB

     Dynamical RAM for            rho*nmix:       1.15 MB

     Dynamical RAM for           G-vectors:       0.28 MB

     Dynamical RAM for          h,s,v(r/c):       0.08 MB

     Dynamical RAM for          <psi|beta>:       0.02 MB

     Dynamical RAM for                 psi:       0.29 MB

     Dynamical RAM for                hpsi:       0.29 MB

     Dynamical RAM for                spsi:       0.29 MB

     Dynamical RAM for      wfcinit/wfcrot:       0.20 MB

     Dynamical RAM for           addusdens:       3.76 MB

     Dynamical RAM for          addusforce:       3.90 MB

     Dynamical RAM for         addusstress:       3.96 MB

     Estimated static dynamical RAM per process >      24.01 MB

     Estimated max dynamical RAM per process >      27.97 MB

     Estimated total dynamical RAM >       1.75 GB

     Check: negative core charge=   -0.000003

     Initial potential from superposition of free atoms

     starting charge   41.69964, renormalised to   42.00000
     Starting wfcs are   26 randomized atomic wfcs

     total cpu time spent up to now is        4.9 secs

     Self-consistent Calculation

     iteration #  1     ecut=    80.00 Ry     beta= 0.50
     Davidson diagonalization with overlap
     ethr =  1.00E-02,  avg # of iterations =  2.0

     total cpu time spent up to now is        5.9 secs

     total energy              =    -650.63076882 Ry
     Harris-Foulkes estimate   =    -651.44970495 Ry
     estimated scf accuracy    <       1.22811766 Ry

     iteration #  2     ecut=    80.00 Ry     beta= 0.50
     Davidson diagonalization with overlap
     ethr =  2.92E-03,  avg # of iterations =  3.0

     total cpu time spent up to now is        6.9 secs

     total energy              =    -651.01792839 Ry
     Harris-Foulkes estimate   =    -651.28765550 Ry
     estimated scf accuracy    <       0.61441065 Ry

     iteration #  3     ecut=    80.00 Ry     beta= 0.50
     Davidson diagonalization with overlap
     ethr =  1.46E-03,  avg # of iterations =  2.0

     total cpu time spent up to now is        7.8 secs

     total energy              =    -651.12241244 Ry
     Harris-Foulkes estimate   =    -651.12554953 Ry
     estimated scf accuracy    <       0.00962699 Ry

     iteration #  4     ecut=    80.00 Ry     beta= 0.50
     Davidson diagonalization with overlap
     ethr =  2.29E-05,  avg # of iterations =  2.7

     total cpu time spent up to now is        8.8 secs

     total energy              =    -651.12316209 Ry
     Harris-Foulkes estimate   =    -651.12383865 Ry
     estimated scf accuracy    <       0.00163774 Ry

     iteration #  5     ecut=    80.00 Ry     beta= 0.50
     Davidson diagonalization with overlap
     ethr =  3.90E-06,  avg # of iterations =  2.9

     total cpu time spent up to now is        9.8 secs

     total energy              =    -651.12351039 Ry
     Harris-Foulkes estimate   =    -651.12359103 Ry
     estimated scf accuracy    <       0.00026936 Ry

     iteration #  6     ecut=    80.00 Ry     beta= 0.50
     Davidson diagonalization with overlap
     ethr =  6.41E-07,  avg # of iterations =  2.7

     total cpu time spent up to now is       10.8 secs

     total energy              =    -651.12355597 Ry
     Harris-Foulkes estimate   =    -651.12355411 Ry
     estimated scf accuracy    <       0.00001210 Ry

     iteration #  7     ecut=    80.00 Ry     beta= 0.50
     Davidson diagonalization with overlap
     ethr =  2.88E-08,  avg # of iterations =  2.5

     total cpu time spent up to now is       11.7 secs

     total energy              =    -651.12355780 Ry
     Harris-Foulkes estimate   =    -651.12355788 Ry
     estimated scf accuracy    <       0.00000178 Ry

     iteration #  8     ecut=    80.00 Ry     beta= 0.50
     Davidson diagonalization with overlap
     ethr =  4.24E-09,  avg # of iterations =  2.6

     total cpu time spent up to now is       12.8 secs

     End of self-consistent calculation

          k = 0.0000 0.0000 0.0000 (  3607 PWs)   bands (ev):

  -115.2144 -69.5824 -69.5702 -69.5702 -64.5277 -31.5357 -31.4948 -31.4948
    -9.9912  -8.6809   2.0574   2.0574   2.9653   3.3614   3.3614   3.4227
     6.0268   6.0268   7.3153   7.5239   7.5239

     occupation numbers 
     1.0000   1.0000   1.0000   1.0000   1.0000   1.0000   1.0000   1.0000
     1.0000   1.0000   1.0000   1.0000   1.0000   1.0000   1.0000   1.0000
     1.0000   1.0000   1.0000   1.0000   1.0000

          k =-0.0000-0.0000 0.0918 (  3631 PWs)   bands (ev):

  -115.2144 -69.5824 -69.5702 -69.5702 -64.5277 -31.5358 -31.4948 -31.4948
    -9.9547  -8.7191   2.0573   2.0573   2.7633   3.3485   3.3485   3.6444
     6.0616   6.0616   7.0614   7.5089   7.5089

     occupation numbers 
     1.0000   1.0000   1.0000   1.0000   1.0000   1.0000   1.0000   1.0000
     1.0000   1.0000   1.0000   1.0000   1.0000   1.0000   1.0000   1.0000
     1.0000   1.0000   1.0000   1.0000   1.0000

          k =-0.0000-0.0000 0.1836 (  3631 PWs)   bands (ev):

  -115.2144 -69.5824 -69.5702 -69.5702 -64.5277 -31.5361 -31.4948 -31.4948
    -9.8556  -8.8227   2.0573   2.0573   2.4996   3.3183   3.3183   3.9579
     6.1478   6.1478   6.6129   7.4696   7.4696

     occupation numbers 
     1.0000   1.0000   1.0000   1.0000   1.0000   1.0000   1.0000   1.0000
     1.0000   1.0000   1.0000   1.0000   1.0000   1.0000   1.0000   1.0000
     1.0000   1.0000   1.0000   1.0000   1.0000

          k =-0.0000-0.0000 0.2753 (  3648 PWs)   bands (ev):

  -115.2144 -69.5824 -69.5702 -69.5702 -64.5277 -31.5364 -31.4948 -31.4948
    -9.7302  -8.9528   2.0572   2.0572   2.3259   3.2893   3.2893   4.1852
     6.2383   6.2383   6.2671   7.4250   7.4250

     occupation numbers 
     1.0000   1.0000   1.0000   1.0000   1.0000   1.0000   1.0000   1.0000
     1.0000   1.0000   1.0000   1.0000   1.0000   1.0000   1.0000   1.0000
     1.0000   1.0000   1.0000   1.0000   1.0000

          k = 0.0000 0.0000-0.3671 (  3660 PWs)   bands (ev):

  -115.2144 -69.5824 -69.5702 -69.5702 -64.5277 -31.5365 -31.4948 -31.4948
    -9.6635  -9.0215   2.0571   2.0571   2.2668   3.2776   3.2776   4.2680
     6.1397   6.2774   6.2774   7.4045   7.4045

     occupation numbers 
     1.0000   1.0000   1.0000   1.0000   1.0000   1.0000   1.0000   1.0000
     1.0000   1.0000   1.0000   1.0000   1.0000   1.0000   1.0000   1.0000
     1.0000   1.0000   1.0000   1.0000   1.0000

          k =-0.0000 0.1443-0.0000 (  3639 PWs)   bands (ev):

  -115.2144 -69.5824 -69.5704 -69.5702 -64.5275 -31.5354 -31.4986 -31.4957
    -9.9068  -8.6637   2.0215   2.1398   2.8881   3.3546   3.4339   3.5664
     5.6864   5.9439   6.8518   7.2260   7.3684

     occupation numbers 
     1.0000   1.0000   1.0000   1.0000   1.0000   1.0000   1.0000   1.0000
     1.0000   1.0000   1.0000   1.0000   1.0000   1.0000   1.0000   1.0000
     1.0000   1.0000   1.0000   1.0000   1.0000

          k =-0.0000 0.1443 0.0918 (  3636 PWs)   bands (ev):

  -115.2144 -69.5824 -69.5704 -69.5702 -64.5275 -31.5355 -31.4985 -31.4957
    -9.8725  -8.6979   2.0193   2.1390   2.7519   3.2846   3.3421   3.8455
     5.7146   5.9882   6.6221   7.3408   7.3623

     occupation numbers 
     1.0000   1.0000   1.0000   1.0000   1.0000   1.0000   1.0000   1.0000
     1.0000   1.0000   1.0000   1.0000   1.0000   1.0000   1.0000   1.0000
     1.0000   1.0000   1.0000   1.0000   1.0000

          k =-0.0000 0.1443 0.1836 (  3628 PWs)   bands (ev):

  -115.2144 -69.5824 -69.5704 -69.5703 -64.5275 -31.5357 -31.4985 -31.4957
    -9.7796  -8.7908   2.0107   2.1387   2.5172   3.1767   3.3115   4.1687
     5.7667   6.0898   6.3580   7.2810   7.4308

     occupation numbers 
     1.0000   1.0000   1.0000   1.0000   1.0000   1.0000   1.0000   1.0000
     1.0000   1.0000   1.0000   1.0000   1.0000   1.0000   1.0000   1.0000
     1.0000   1.0000   1.0000   1.0000   1.0000

          k =-0.0000 0.1443 0.2753 (  3636 PWs)   bands (ev):

  -115.2144 -69.5824 -69.5704 -69.5703 -64.5275 -31.5360 -31.4985 -31.4956
    -9.6638  -8.9069   1.9968   2.1391   2.3530   3.1019   3.2816   4.3910
     5.7298   6.1952   6.2953   7.2172   7.4048

     occupation numbers 
     1.0000   1.0000   1.0000   1.0000   1.0000   1.0000   1.0000   1.0000
     1.0000   1.0000   1.0000   1.0000   1.0000   1.0000   1.0000   1.0000
     1.0000   1.0000   1.0000   1.0000   1.0000

          k =-0.0000 0.1443-0.3671 (  3646 PWs)   bands (ev):

  -115.2144 -69.5824 -69.5704 -69.5703 -64.5275 -31.5361 -31.4985 -31.4956
    -9.6034  -8.9675   1.9902   2.1399   2.2966   3.0739   3.2689   4.4620
     5.7095   6.2360   6.3083   7.1944   7.3694

     occupation numbers 
     1.0000   1.0000   1.0000   1.0000   1.0000   1.0000   1.0000   1.0000
     1.0000   1.0000   1.0000   1.0000   1.0000   1.0000   1.0000   1.0000
     1.0000   1.0000   1.0000   1.0000   1.0000

          k =-0.0000 0.1443-0.2753 (  3636 PWs)   bands (ev):

  -115.2144 -69.5824 -69.5704 -69.5703 -64.5275 -31.5360 -31.4985 -31.4956
    -9.6638  -8.9069   1.9995   2.1407   2.3490   3.1038   3.2801   4.3722
     5.8057   6.1810   6.2556   7.2341   7.3802

     occupation numbers 
     1.0000   1.0000   1.0000   1.0000   1.0000   1.0000   1.0000   1.0000
     1.0000   1.0000   1.0000   1.0000   1.0000   1.0000   1.0000   1.0000
     1.0000   1.0000   1.0000   1.0000   1.0000

          k =-0.0000 0.1443-0.1836 (  3628 PWs)   bands (ev):

  -115.2144 -69.5824 -69.5704 -69.5703 -64.5275 -31.5357 -31.4985 -31.4957
    -9.7796  -8.7908   2.0119   2.1410   2.5155   3.1793   3.3094   4.1479
     5.8427   6.0727   6.3329   7.3017   7.3886

     occupation numbers 
     1.0000   1.0000   1.0000   1.0000   1.0000   1.0000   1.0000   1.0000
     1.0000   1.0000   1.0000   1.0000   1.0000   1.0000   1.0000   1.0000
     1.0000   1.0000   1.0000   1.0000   1.0000

          k =-0.0000 0.1443-0.0918 (  3636 PWs)   bands (ev):

  -115.2144 -69.5824 -69.5704 -69.5702 -64.5275 -31.5355 -31.4985 -31.4957
    -9.8725  -8.6979   2.0190   2.1406   2.7537   3.2874   3.3406   3.8314
     5.7425   5.9776   6.6433   7.3152   7.3539

     occupation numbers 
     1.0000   1.0000   1.0000   1.0000   1.0000   1.0000   1.0000   1.0000
     1.0000   1.0000   1.0000   1.0000   1.0000   1.0000   1.0000   1.0000
     1.0000   1.0000   1.0000   1.0000   1.0000

          k =-0.0000 0.2887-0.0000 (  3670 PWs)   bands (ev):

  -115.2144 -69.5824 -69.5710 -69.5704 -64.5270 -31.5345 -31.5075 -31.4977
    -9.6879  -8.6324   1.9750   2.3615   2.7932   3.3416   3.4624   3.9912
     4.9665   5.7030   5.8686   6.9638   7.0274

     occupation numbers 
     1.0000   1.0000   1.0000   1.0000   1.0000   1.0000   1.0000   1.0000
     1.0000   1.0000   1.0000   1.0000   1.0000   1.0000   1.0000   1.0000
     1.0000   1.0000   1.0000   1.0000   1.0000

          k =-0.0000 0.2887 0.0918 (  3655 PWs)   bands (ev):

  -115.2144 -69.5824 -69.5710 -69.5704 -64.5270 -31.5346 -31.5075 -31.4977
    -9.6601  -8.6555   1.9702   2.3597   2.7045   3.2547   3.3296   4.2370
     5.0013   5.7557   5.7597   6.9831   7.1330

     occupation numbers 
     1.0000   1.0000   1.0000   1.0000   1.0000   1.0000   1.0000   1.0000
     1.0000   1.0000   1.0000   1.0000   1.0000   1.0000   1.0000   1.0000
     1.0000   1.0000   1.0000   1.0000   1.0000

          k =-0.0000 0.2887 0.1836 (  3647 PWs)   bands (ev):

  -115.2144 -69.5824 -69.5710 -69.5704 -64.5270 -31.5349 -31.5075 -31.4977
    -9.5862  -8.7183   1.9477   2.3586   2.5284   2.9950   3.2985   4.4906
     5.0371   5.7828   5.8938   6.8809   7.3321

     occupation numbers 
     1.0000   1.0000   1.0000   1.0000   1.0000   1.0000   1.0000   1.0000
     1.0000   1.0000   1.0000   1.0000   1.0000   1.0000   1.0000   1.0000
     1.0000   1.0000   1.0000   1.0000   1.0000

          k =-0.0000 0.2887 0.2753 (  3644 PWs)   bands (ev):

  -115.2144 -69.5824 -69.5710 -69.5704 -64.5270 -31.5351 -31.5075 -31.4976
    -9.4981  -8.7954   1.9135   2.3589   2.3875   2.8177   3.2677   4.6395
     4.9665   6.0112   6.0494   6.7571   7.4092

     occupation numbers 
     1.0000   1.0000   1.0000   1.0000   1.0000   1.0000   1.0000   1.0000
     1.0000   1.0000   1.0000   1.0000   1.0000   1.0000   1.0000   1.0000
     1.0000   1.0000   1.0000   1.0000   1.0000

          k =-0.0000 0.2887-0.3671 (  3638 PWs)   bands (ev):

  -115.2144 -69.5823 -69.5709 -69.5704 -64.5270 -31.5352 -31.5075 -31.4976
    -9.4548  -8.8343   1.9010   2.3298   2.3605   2.7583   3.2539   4.6084
     5.0305   6.1169   6.1300   6.7039   7.3864

     occupation numbers 
     1.0000   1.0000   1.0000   1.0000   1.0000   1.0000   1.0000   1.0000
     1.0000   1.0000   1.0000   1.0000   1.0000   1.0000   1.0000   1.0000
     1.0000   1.0000   1.0000   1.0000   1.0000

          k =-0.0000 0.2887-0.2753 (  3644 PWs)   bands (ev):

  -115.2144 -69.5824 -69.5710 -69.5704 -64.5270 -31.5351 -31.5075 -31.4976
    -9.4980  -8.7956   1.9232   2.3625   2.3750   2.8233   3.2643   4.4776
     5.2034   5.9857   6.0211   6.7889   7.3373

     occupation numbers 
     1.0000   1.0000   1.0000   1.0000   1.0000   1.0000   1.0000   1.0000
     1.0000   1.0000   1.0000   1.0000   1.0000   1.0000   1.0000   1.0000
     1.0000   1.0000   1.0000   1.0000   1.0000

          k =-0.0000 0.2887-0.1836 (  3647 PWs)   bands (ev):

  -115.2144 -69.5824 -69.5710 -69.5704 -64.5270 -31.5349 -31.5075 -31.4977
    -9.5861  -8.7185   1.9508   2.3635   2.5337   2.9977   3.2939   4.3167
     5.3201   5.7483   5.8653   6.9143   7.2202

     occupation numbers 
     1.0000   1.0000   1.0000   1.0000   1.0000   1.0000   1.0000   1.0000
     1.0000   1.0000   1.0000   1.0000   1.0000   1.0000   1.0000   1.0000
     1.0000   1.0000   1.0000   1.0000   1.0000

          k =-0.0000 0.2887-0.0918 (  3655 PWs)   bands (ev):

  -115.2144 -69.5824 -69.5710 -69.5704 -64.5270 -31.5346 -31.5075 -31.4977
    -9.6601  -8.6556   1.9679   2.3631   2.7196   3.2669   3.3264   4.1142
     5.1243   5.7433   5.8140   7.0029   7.0321

     occupation numbers 
     1.0000   1.0000   1.0000   1.0000   1.0000   1.0000   1.0000   1.0000
     1.0000   1.0000   1.0000   1.0000   1.0000   1.0000   1.0000   1.0000
     1.0000   1.0000   1.0000   1.0000   1.0000

          k =-0.0000 0.4330-0.0000 (  3662 PWs)   bands (ev):

  -115.2144 -69.5823 -69.5715 -69.5706 -64.5266 -31.5337 -31.5165 -31.4997
    -9.4368  -8.6261   2.0059   2.6274   2.7351   3.3422   3.4390   4.2283
     4.6062   5.1203   5.3734   6.5857   6.7420

     occupation numbers 
     1.0000   1.0000   1.0000   1.0000   1.0000   1.0000   1.0000   1.0000
     1.0000   1.0000   1.0000   1.0000   1.0000   1.0000   1.0000   1.0000
     1.0000   1.0000   1.0000   1.0000   1.0000

          k =-0.0000 0.4330 0.0918 (  3654 PWs)   bands (ev):

  -115.2144 -69.5823 -69.5715 -69.5706 -64.5266 -31.5338 -31.5165 -31.4997
    -9.4190  -8.6343   2.0038   2.6236   2.6437   3.2702   3.3313   4.1470
     4.8454   5.0917   5.4329   6.6923   6.7977

     occupation numbers 
     1.0000   1.0000   1.0000   1.0000   1.0000   1.0000   1.0000   1.0000
     1.0000   1.0000   1.0000   1.0000   1.0000   1.0000   1.0000   1.0000
     1.0000   1.0000   1.0000   1.0000   1.0000

          k =-0.0000 0.4330 0.1836 (  3636 PWs)   bands (ev):

  -115.2144 -69.5823 -69.5715 -69.5705 -64.5266 -31.5340 -31.5164 -31.4996
    -9.3735  -8.6568   1.9726   2.4875   2.6186   2.9524   3.3026   4.0574
     4.8174   5.5447   5.5822   6.5674   7.1391

     occupation numbers 
     1.0000   1.0000   1.0000   1.0000   1.0000   1.0000   1.0000   1.0000
     1.0000   1.0000   1.0000   1.0000   1.0000   1.0000   1.0000   1.0000
     1.0000   1.0000   1.0000   1.0000   1.0000

          k =-0.0000 0.4330 0.2753 (  3647 PWs)   bands (ev):

  -115.2144 -69.5823 -69.5715 -69.5705 -64.5266 -31.5342 -31.5164 -31.4996
    -9.3236  -8.6838   1.9221   2.3653   2.6150   2.6962   3.2744   4.0246
     4.7944   5.7711   5.9314   6.4019   7.3896

     occupation numbers 
     1.0000   1.0000   1.0000   1.0000   1.0000   1.0000   1.0000   1.0000
     1.0000   1.0000   1.0000   1.0000   1.0000   1.0000   1.0000   1.0000
     1.0000   1.0000   1.0000   1.0000   1.0000

          k =-0.0000 0.4330-0.3671 (  3662 PWs)   bands (ev):

  -115.2144 -69.5823 -69.5715 -69.5705 -64.5266 -31.5343 -31.5164 -31.4996
    -9.3012  -8.6967   1.9003   2.3094   2.6145   2.6153   3.2615   3.9980
     4.8114   5.8732   6.0950   6.3099   7.4439

     occupation numbers 
     1.0000   1.0000   1.0000   1.0000   1.0000   1.0000   1.0000   1.0000
     1.0000   1.0000   1.0000   1.0000   1.0000   1.0000   1.0000   1.0000
     1.0000   1.0000   1.0000   1.0000   1.0000

          k =-0.0000 0.4330-0.2753 (  3647 PWs)   bands (ev):

  -115.2144 -69.5823 -69.5715 -69.5705 -64.5266 -31.5342 -31.5164 -31.4996
    -9.3234  -8.6840   1.9217   2.3716   2.6193   2.6992   3.2703   3.9668
     4.8516   5.7484   5.9824   6.4269   7.3094

     occupation numbers 
     1.0000   1.0000   1.0000   1.0000   1.0000   1.0000   1.0000   1.0000
     1.0000   1.0000   1.0000   1.0000   1.0000   1.0000   1.0000   1.0000
     1.0000   1.0000   1.0000   1.0000   1.0000

          k =-0.0000 0.4330-0.1836 (  3636 PWs)   bands (ev):

  -115.2144 -69.5823 -69.5715 -69.5705 -64.5266 -31.5340 -31.5164 -31.4996
    -9.3733  -8.6572   1.9576   2.5294   2.6245   2.9556   3.2969   3.9380
     4.8807   5.5617   5.6724   6.5911   7.0117

     occupation numbers 
     1.0000   1.0000   1.0000   1.0000   1.0000   1.0000   1.0000   1.0000
     1.0000   1.0000   1.0000   1.0000   1.0000   1.0000   1.0000   1.0000
     1.0000   1.0000   1.0000   1.0000   1.0000

          k =-0.0000 0.4330-0.0918 (  3654 PWs)   bands (ev):

  -115.2144 -69.5823 -69.5715 -69.5706 -64.5266 -31.5338 -31.5165 -31.4997
    -9.4189  -8.6345   1.9884   2.6278   2.6813   3.3111   3.3273   3.9771
     4.8024   5.3393   5.4215   6.6842   6.7059

     occupation numbers 
     1.0000   1.0000   1.0000   1.0000   1.0000   1.0000   1.0000   1.0000
     1.0000   1.0000   1.0000   1.0000   1.0000   1.0000   1.0000   1.0000
     1.0000   1.0000   1.0000   1.0000   1.0000

          k = 0.0000-0.5774 0.0000 (  3670 PWs)   bands (ev):

  -115.2144 -69.5823 -69.5717 -69.5706 -64.5264 -31.5333 -31.5202 -31.5005
    -9.3160  -8.6379   2.0568   2.7177   2.7541   3.3546   3.3672   4.0705
     4.7406   4.9329   5.1971   6.3498   6.6409

     occupation numbers 
     1.0000   1.0000   1.0000   1.0000   1.0000   1.0000   1.0000   1.0000
     1.0000   1.0000   1.0000   1.0000   1.0000   1.0000   1.0000   1.0000
     1.0000   1.0000   1.0000   1.0000   1.0000

          k = 0.0000-0.5774 0.0918 (  3660 PWs)   bands (ev):

  -115.2144 -69.5823 -69.5717 -69.5706 -64.5264 -31.5334 -31.5202 -31.5005
    -9.3048  -8.6376   2.0407   2.6517   2.7505   3.3059   3.3431   3.7997
     4.6926   5.2512   5.2990   6.5295   6.5968

     occupation numbers 
     1.0000   1.0000   1.0000   1.0000   1.0000   1.0000   1.0000   1.0000
     1.0000   1.0000   1.0000   1.0000   1.0000   1.0000   1.0000   1.0000
     1.0000   1.0000   1.0000   1.0000   1.0000

          k = 0.0000-0.5774 0.1836 (  3654 PWs)   bands (ev):

  -115.2144 -69.5823 -69.5717 -69.5706 -64.5264 -31.5336 -31.5201 -31.5005
    -9.2770  -8.6373   1.9934   2.5210   2.7416   2.9983   3.3172   3.6143
     4.7185   5.3957   5.7208   6.4747   6.9534

     occupation numbers 
     1.0000   1.0000   1.0000   1.0000   1.0000   1.0000   1.0000   1.0000
     1.0000   1.0000   1.0000   1.0000   1.0000   1.0000   1.0000   1.0000
     1.0000   1.0000   1.0000   1.0000   1.0000

          k = 0.0000-0.5774 0.2753 (  3644 PWs)   bands (ev):

  -115.2144 -69.5823 -69.5717 -69.5706 -64.5264 -31.5338 -31.5201 -31.5005
    -9.2482  -8.6378   1.9360   2.3998   2.6987   2.7324   3.2937   3.5882
     4.7416   5.5789   6.0176   6.3119   7.3313

     occupation numbers 
     1.0000   1.0000   1.0000   1.0000   1.0000   1.0000   1.0000   1.0000
     1.0000   1.0000   1.0000   1.0000   1.0000   1.0000   1.0000   1.0000
     1.0000   1.0000   1.0000   1.0000   1.0000

          k = 0.0000-0.5774-0.3671 (  3656 PWs)   bands (ev):

  -115.2144 -69.5823 -69.5717 -69.5706 -64.5264 -31.5339 -31.5201 -31.5005
    -9.2359  -8.6383   1.9108   2.3361   2.6074   2.7284   3.2847   3.5852
     4.7486   5.6835   6.1310   6.2152   7.4704

     occupation numbers 
     1.0000   1.0000   1.0000   1.0000   1.0000   1.0000   1.0000   1.0000
     1.0000   1.0000   1.0000   1.0000   1.0000   1.0000   1.0000   1.0000
     1.0000   1.0000   1.0000   1.0000   1.0000

          k = 0.1250 0.0722 0.0000 (  3639 PWs)   bands (ev):

  -115.2144 -69.5824 -69.5704 -69.5702 -64.5275 -31.5354 -31.4986 -31.4957
    -9.9068  -8.6637   2.0215   2.1398   2.8881   3.3546   3.4339   3.5664
     5.6864   5.9439   6.8518   7.2260   7.3684

     occupation numbers 
     1.0000   1.0000   1.0000   1.0000   1.0000   1.0000   1.0000   1.0000
     1.0000   1.0000   1.0000   1.0000   1.0000   1.0000   1.0000   1.0000
     1.0000   1.0000   1.0000   1.0000   1.0000

          k = 0.1250 0.0722 0.0918 (  3636 PWs)   bands (ev):

  -115.2144 -69.5824 -69.5704 -69.5702 -64.5275 -31.5355 -31.4985 -31.4957
    -9.8725  -8.6979   2.0190   2.1406   2.7537   3.2874   3.3406   3.8314
     5.7425   5.9776   6.6433   7.3152   7.3539

     occupation numbers 
     1.0000   1.0000   1.0000   1.0000   1.0000   1.0000   1.0000   1.0000
     1.0000   1.0000   1.0000   1.0000   1.0000   1.0000   1.0000   1.0000
     1.0000   1.0000   1.0000   1.0000   1.0000

          k = 0.1250 0.0722 0.1836 (  3628 PWs)   bands (ev):

  -115.2144 -69.5824 -69.5704 -69.5703 -64.5275 -31.5357 -31.4985 -31.4957
    -9.7796  -8.7908   2.0119   2.1410   2.5155   3.1793   3.3094   4.1479
     5.8427   6.0727   6.3329   7.3017   7.3886

     occupation numbers 
     1.0000   1.0000   1.0000   1.0000   1.0000   1.0000   1.0000   1.0000
     1.0000   1.0000   1.0000   1.0000   1.0000   1.0000   1.0000   1.0000
     1.0000   1.0000   1.0000   1.0000   1.0000

          k = 0.1250 0.0722 0.2753 (  3636 PWs)   bands (ev):

  -115.2144 -69.5824 -69.5704 -69.5703 -64.5275 -31.5360 -31.4985 -31.4956
    -9.6638  -8.9069   1.9995   2.1407   2.3490   3.1038   3.2801   4.3722
     5.8057   6.1810   6.2556   7.2341   7.3802

     occupation numbers 
     1.0000   1.0000   1.0000   1.0000   1.0000   1.0000   1.0000   1.0000
     1.0000   1.0000   1.0000   1.0000   1.0000   1.0000   1.0000   1.0000
     1.0000   1.0000   1.0000   1.0000   1.0000

          k = 0.1250 0.0722-0.3671 (  3646 PWs)   bands (ev):

  -115.2144 -69.5824 -69.5704 -69.5703 -64.5275 -31.5361 -31.4985 -31.4956
    -9.6034  -8.9675   1.9902   2.1399   2.2966   3.0739   3.2689   4.4620
     5.7095   6.2360   6.3083   7.1944   7.3694

     occupation numbers 
     1.0000   1.0000   1.0000   1.0000   1.0000   1.0000   1.0000   1.0000
     1.0000   1.0000   1.0000   1.0000   1.0000   1.0000   1.0000   1.0000
     1.0000   1.0000   1.0000   1.0000   1.0000

          k = 0.1250 0.0722-0.2753 (  3636 PWs)   bands (ev):

  -115.2144 -69.5824 -69.5704 -69.5703 -64.5275 -31.5360 -31.4985 -31.4956
    -9.6638  -8.9069   1.9968   2.1391   2.3530   3.1019   3.2816   4.3910
     5.7298   6.1952   6.2953   7.2172   7.4048

     occupation numbers 
     1.0000   1.0000   1.0000   1.0000   1.0000   1.0000   1.0000   1.0000
     1.0000   1.0000   1.0000   1.0000   1.0000   1.0000   1.0000   1.0000
     1.0000   1.0000   1.0000   1.0000   1.0000

          k = 0.1250 0.0722-0.1836 (  3628 PWs)   bands (ev):

  -115.2144 -69.5824 -69.5704 -69.5703 -64.5275 -31.5357 -31.4985 -31.4957
    -9.7796  -8.7908   2.0106   2.1387   2.5172   3.1767   3.3115   4.1687
     5.7667   6.0898   6.3580   7.2810   7.4308

     occupation numbers 
     1.0000   1.0000   1.0000   1.0000   1.0000   1.0000   1.0000   1.0000
     1.0000   1.0000   1.0000   1.0000   1.0000   1.0000   1.0000   1.0000
     1.0000   1.0000   1.0000   1.0000   1.0000

          k = 0.1250 0.0722-0.0918 (  3636 PWs)   bands (ev):

  -115.2144 -69.5824 -69.5704 -69.5702 -64.5275 -31.5355 -31.4985 -31.4957
    -9.8725  -8.6979   2.0193   2.1390   2.7519   3.2846   3.3421   3.8455
     5.7146   5.9882   6.6221   7.3408   7.3623

     occupation numbers 
     1.0000   1.0000   1.0000   1.0000   1.0000   1.0000   1.0000   1.0000
     1.0000   1.0000   1.0000   1.0000   1.0000   1.0000   1.0000   1.0000
     1.0000   1.0000   1.0000   1.0000   1.0000

          k = 0.1250 0.2165 0.0000 (  3655 PWs)   bands (ev):

  -115.2144 -69.5824 -69.5708 -69.5704 -64.5272 -31.5348 -31.5045 -31.4974
    -9.7548  -8.6396   1.9931   2.2828   2.8199   3.3367   3.4576   3.8725
     5.2257   5.6472   6.2326   6.9838   7.1144

     occupation numbers 
     1.0000   1.0000   1.0000   1.0000   1.0000   1.0000   1.0000   1.0000
     1.0000   1.0000   1.0000   1.0000   1.0000   1.0000   1.0000   1.0000
     1.0000   1.0000   1.0000   1.0000   1.0000

          k = 0.1250 0.2165 0.0918 (  3661 PWs)   bands (ev):

  -115.2144 -69.5824 -69.5708 -69.5704 -64.5272 -31.5349 -31.5045 -31.4974
    -9.7248  -8.6663   1.9884   2.2817   2.7312   3.2626   3.3229   4.0963
     5.2840   5.7040   6.1137   6.9947   7.1955

     occupation numbers 
     1.0000   1.0000   1.0000   1.0000   1.0000   1.0000   1.0000   1.0000
     1.0000   1.0000   1.0000   1.0000   1.0000   1.0000   1.0000   1.0000
     1.0000   1.0000   1.0000   1.0000   1.0000

          k = 0.1250 0.2165 0.1836 (  3651 PWs)   bands (ev):

  -115.2144 -69.5824 -69.5708 -69.5704 -64.5272 -31.5351 -31.5045 -31.4974
    -9.6446  -8.7387   1.9721   2.2778   2.5393   3.0412   3.2892   4.3744
     5.3491   5.8606   6.0081   6.9189   7.3544

     occupation numbers 
     1.0000   1.0000   1.0000   1.0000   1.0000   1.0000   1.0000   1.0000
     1.0000   1.0000   1.0000   1.0000   1.0000   1.0000   1.0000   1.0000
     1.0000   1.0000   1.0000   1.0000   1.0000

          k = 0.1250 0.2165 0.2753 (  3637 PWs)   bands (ev):

  -115.2144 -69.5824 -69.5708 -69.5704 -64.5272 -31.5354 -31.5045 -31.4974
    -9.5476  -8.8283   1.9447   2.2701   2.3921   2.8967   3.2574   4.5612
     5.2778   6.0006   6.1511   6.8089   7.4200

     occupation numbers 
     1.0000   1.0000   1.0000   1.0000   1.0000   1.0000   1.0000   1.0000
     1.0000   1.0000   1.0000   1.0000   1.0000   1.0000   1.0000   1.0000
     1.0000   1.0000   1.0000   1.0000   1.0000

          k = 0.1250 0.2165-0.3671 (  3644 PWs)   bands (ev):

  -115.2144 -69.5824 -69.5708 -69.5704 -64.5272 -31.5355 -31.5045 -31.4974
    -9.4990  -8.8738   1.9288   2.2633   2.3472   2.8447   3.2446   4.6333
     5.2183   6.0651   6.2570   6.7509   7.4215

     occupation numbers 
     1.0000   1.0000   1.0000   1.0000   1.0000   1.0000   1.0000   1.0000
     1.0000   1.0000   1.0000   1.0000   1.0000   1.0000   1.0000   1.0000
     1.0000   1.0000   1.0000   1.0000   1.0000

          k = 0.1250 0.2165-0.2753 (  3637 PWs)   bands (ev):

  -115.2144 -69.5824 -69.5708 -69.5704 -64.5272 -31.5354 -31.5045 -31.4974
    -9.5476  -8.8283   1.9447   2.2701   2.3921   2.8967   3.2574   4.5612
     5.2778   6.0006   6.1511   6.8089   7.4200

     occupation numbers 
     1.0000   1.0000   1.0000   1.0000   1.0000   1.0000   1.0000   1.0000
     1.0000   1.0000   1.0000   1.0000   1.0000   1.0000   1.0000   1.0000
     1.0000   1.0000   1.0000   1.0000   1.0000

          k = 0.1250 0.2165-0.1836 (  3651 PWs)   bands (ev):

  -115.2144 -69.5824 -69.5708 -69.5704 -64.5272 -31.5351 -31.5045 -31.4974
    -9.6446  -8.7387   1.9721   2.2778   2.5393   3.0412   3.2892   4.3744
     5.3491   5.8606   6.0081   6.9189   7.3544

     occupation numbers 
     1.0000   1.0000   1.0000   1.0000   1.0000   1.0000   1.0000   1.0000
     1.0000   1.0000   1.0000   1.0000   1.0000   1.0000   1.0000   1.0000
     1.0000   1.0000   1.0000   1.0000   1.0000

          k = 0.1250 0.2165-0.0918 (  3661 PWs)   bands (ev):

  -115.2144 -69.5824 -69.5708 -69.5704 -64.5272 -31.5349 -31.5045 -31.4974
    -9.7248  -8.6663   1.9884   2.2817   2.7312   3.2626   3.3229   4.0963
     5.2840   5.7040   6.1137   6.9947   7.1955

     occupation numbers 
     1.0000   1.0000   1.0000   1.0000   1.0000   1.0000   1.0000   1.0000
     1.0000   1.0000   1.0000   1.0000   1.0000   1.0000   1.0000   1.0000
     1.0000   1.0000   1.0000   1.0000   1.0000

          k = 0.1250 0.3608 0.0000 (  3654 PWs)   bands (ev):

  -115.2144 -69.5823 -69.5712 -69.5706 -64.5267 -31.5339 -31.5127 -31.5002
    -9.5166  -8.6231   2.0302   2.5093   2.7754   3.3147   3.4653   4.2984
     4.6529   5.1376   5.6107   6.6023   6.7742

     occupation numbers 
     1.0000   1.0000   1.0000   1.0000   1.0000   1.0000   1.0000   1.0000
     1.0000   1.0000   1.0000   1.0000   1.0000   1.0000   1.0000   1.0000
     1.0000   1.0000   1.0000   1.0000   1.0000

          k = 0.1250 0.3608 0.0918 (  3653 PWs)   bands (ev):

  -115.2144 -69.5823 -69.5712 -69.5706 -64.5267 -31.5340 -31.5127 -31.5002
    -9.4951  -8.6365   2.0285   2.4906   2.7090   3.2700   3.3065   4.3357
     4.7427   5.2789   5.5529   6.6023   6.9147

     occupation numbers 
     1.0000   1.0000   1.0000   1.0000   1.0000   1.0000   1.0000   1.0000
     1.0000   1.0000   1.0000   1.0000   1.0000   1.0000   1.0000   1.0000
     1.0000   1.0000   1.0000   1.0000   1.0000

          k = 0.1250 0.3608 0.1836 (  3658 PWs)   bands (ev):

  -115.2144 -69.5823 -69.5712 -69.5706 -64.5267 -31.5342 -31.5127 -31.5002
    -9.4395  -8.6729   2.0072   2.4240   2.6091   2.9602   3.2672   4.3476
     4.8119   5.5234   5.7194   6.4758   7.2210

     occupation numbers 
     1.0000   1.0000   1.0000   1.0000   1.0000   1.0000   1.0000   1.0000
     1.0000   1.0000   1.0000   1.0000   1.0000   1.0000   1.0000   1.0000
     1.0000   1.0000   1.0000   1.0000   1.0000

          k = 0.1250 0.3608 0.2753 (  3653 PWs)   bands (ev):

  -115.2144 -69.5823 -69.5712 -69.5706 -64.5267 -31.5345 -31.5126 -31.5002
    -9.3765  -8.7167   1.9657   2.3331   2.5576   2.7373   3.2339   4.3636
     4.8191   5.6639   6.0295   6.3388   7.4467

     occupation numbers 
     1.0000   1.0000   1.0000   1.0000   1.0000   1.0000   1.0000   1.0000
     1.0000   1.0000   1.0000   1.0000   1.0000   1.0000   1.0000   1.0000
     1.0000   1.0000   1.0000   1.0000   1.0000

          k = 0.1250 0.3608-0.3671 (  3640 PWs)   bands (ev):

  -115.2144 -69.5823 -69.5712 -69.5706 -64.5267 -31.5346 -31.5126 -31.5002
    -9.3474  -8.7379   1.9447   2.2913   2.5353   2.6725   3.2198   4.3432
     4.8517   5.7800   6.0266   6.3602   7.5064

     occupation numbers 
     1.0000   1.0000   1.0000   1.0000   1.0000   1.0000   1.0000   1.0000
     1.0000   1.0000   1.0000   1.0000   1.0000   1.0000   1.0000   1.0000
     1.0000   1.0000   1.0000   1.0000   1.0000

          k = 0.1250 0.3608-0.2753 (  3653 PWs)   bands (ev):

  -115.2144 -69.5823 -69.5712 -69.5706 -64.5267 -31.5345 -31.5126 -31.5002
    -9.3764  -8.7168   1.9683   2.3341   2.5571   2.7401   3.2316   4.2906
     4.9147   5.6469   6.0388   6.3490   7.4076

     occupation numbers 
     1.0000   1.0000   1.0000   1.0000   1.0000   1.0000   1.0000   1.0000
     1.0000   1.0000   1.0000   1.0000   1.0000   1.0000   1.0000   1.0000
     1.0000   1.0000   1.0000   1.0000   1.0000

          k = 0.1250 0.3608-0.1836 (  3658 PWs)   bands (ev):

  -115.2144 -69.5823 -69.5712 -69.5706 -64.5267 -31.5342 -31.5127 -31.5002
    -9.4394  -8.6731   2.0006   2.4422   2.6135   2.9597   3.2639   4.2278
     4.9388   5.5281   5.7452   6.4681   7.1658

     occupation numbers 
     1.0000   1.0000   1.0000   1.0000   1.0000   1.0000   1.0000   1.0000
     1.0000   1.0000   1.0000   1.0000   1.0000   1.0000   1.0000   1.0000
     1.0000   1.0000   1.0000   1.0000   1.0000

          k = 0.1250 0.3608-0.0918 (  3653 PWs)   bands (ev):

  -115.2144 -69.5823 -69.5712 -69.5706 -64.5267 -31.5340 -31.5127 -31.5002
    -9.4951  -8.6367   2.0207   2.5004   2.7213   3.2837   3.3046   4.1971
     4.8333   5.3284   5.5796   6.5688   6.8859

     occupation numbers 
     1.0000   1.0000   1.0000   1.0000   1.0000   1.0000   1.0000   1.0000
     1.0000   1.0000   1.0000   1.0000   1.0000   1.0000   1.0000   1.0000
     1.0000   1.0000   1.0000   1.0000   1.0000

          k = 0.1250 0.5052 0.0000 (  3663 PWs)   bands (ev):

  -115.2144 -69.5823 -69.5716 -69.5707 -64.5264 -31.5333 -31.5184 -31.5022
    -9.3202  -8.6351   2.1438   2.6853   2.7861   3.3207   3.3945   4.1046
     4.6956   4.9606   5.1481   6.3317   6.4663

     occupation numbers 
     1.0000   1.0000   1.0000   1.0000   1.0000   1.0000   1.0000   1.0000
     1.0000   1.0000   1.0000   1.0000   1.0000   1.0000   1.0000   1.0000
     1.0000   1.0000   1.0000   1.0000   1.0000

          k = 0.1250 0.5052 0.0918 (  3655 PWs)   bands (ev):

  -115.2144 -69.5823 -69.5716 -69.5707 -64.5264 -31.5334 -31.5184 -31.5022
    -9.3086  -8.6352   2.1412   2.6105   2.7736   3.2923   3.3180   3.9170
     4.6530   5.0455   5.4083   6.3865   6.5697

     occupation numbers 
     1.0000   1.0000   1.0000   1.0000   1.0000   1.0000   1.0000   1.0000
     1.0000   1.0000   1.0000   1.0000   1.0000   1.0000   1.0000   1.0000
     1.0000   1.0000   1.0000   1.0000   1.0000

          k = 0.1250 0.5052 0.1836 (  3662 PWs)   bands (ev):

  -115.2144 -69.5823 -69.5716 -69.5707 -64.5264 -31.5336 -31.5184 -31.5022
    -9.2799  -8.6362   2.1061   2.4808   2.7515   2.9943   3.2865   3.7447
     4.6938   5.1299   5.8369   6.2704   7.0082

     occupation numbers 
[...]
     4.2772   4.7925   5.4687   5.8138   6.4714

     occupation numbers 
     1.0000   1.0000   1.0000   1.0000   1.0000   1.0000   1.0000   1.0000
     1.0000   1.0000   1.0000   1.0000   1.0000   1.0000   1.0000   1.0000
     1.0000   1.0000   1.0000   1.0000   1.0000

          k =-0.4999-0.1443-0.0888 (  3778 PWs)   bands (ev):

  -115.6911 -70.0663 -70.0415 -70.0407 -65.0137 -32.0204 -32.0000 -31.9842
    -9.6543  -8.9175   1.7383   2.2506   2.3672   2.8759   2.9232   3.4397
     4.2367   4.7515   5.0641   5.8882   6.1357

     occupation numbers 
     1.0000   1.0000   1.0000   1.0000   1.0000   1.0000   1.0000   1.0000
     1.0000   1.0000   1.0000   1.0000   1.0000   1.0000   1.0000   1.0000
     1.0000   1.0000   1.0000   1.0000   1.0000

          k =-0.4999 0.0000 0.0000 (  3789 PWs)   bands (ev):

  -115.6911 -70.0663 -70.0414 -70.0409 -65.0137 -32.0203 -31.9977 -31.9864
    -9.6657  -8.9156   1.8580   2.2088   2.4092   2.8797   2.9898   3.8828
     4.0242   4.6413   4.8512   5.7018   6.0084

     occupation numbers 
     1.0000   1.0000   1.0000   1.0000   1.0000   1.0000   1.0000   1.0000
     1.0000   1.0000   1.0000   1.0000   1.0000   1.0000   1.0000   1.0000
     1.0000   1.0000   1.0000   1.0000   1.0000

          k =-0.4999 0.0000 0.0888 (  3784 PWs)   bands (ev):

  -115.6911 -70.0663 -70.0414 -70.0408 -65.0137 -32.0204 -31.9977 -31.9864
    -9.6574  -8.9160   1.8576   2.1732   2.3865   2.8575   2.9230   3.7236
     3.9532   4.7769   5.0607   5.6612   6.1537

     occupation numbers 
     1.0000   1.0000   1.0000   1.0000   1.0000   1.0000   1.0000   1.0000
     1.0000   1.0000   1.0000   1.0000   1.0000   1.0000   1.0000   1.0000
     1.0000   1.0000   1.0000   1.0000   1.0000

          k =-0.4999 0.0000 0.1776 (  3788 PWs)   bands (ev):

  -115.6911 -70.0663 -70.0414 -70.0408 -65.0137 -32.0205 -31.9977 -31.9864
    -9.6369  -8.9174   1.8545   2.0803   2.3468   2.6498   2.8610   3.5268
     4.0703   4.7215   5.4298   5.6521   6.5140

     occupation numbers 
     1.0000   1.0000   1.0000   1.0000   1.0000   1.0000   1.0000   1.0000
     1.0000   1.0000   1.0000   1.0000   1.0000   1.0000   1.0000   1.0000
     1.0000   1.0000   1.0000   1.0000   1.0000

          k =-0.4999 0.0000 0.2664 (  3781 PWs)   bands (ev):

  -115.6911 -70.0663 -70.0414 -70.0408 -65.0137 -32.0206 -31.9977 -31.9864
    -9.6159  -8.9193   1.8443   1.9863   2.3148   2.4097   2.8410   3.4765
     4.2077   4.7033   5.2908   5.9443   6.8766

     occupation numbers 
     1.0000   1.0000   1.0000   1.0000   1.0000   1.0000   1.0000   1.0000
     1.0000   1.0000   1.0000   1.0000   1.0000   1.0000   1.0000   1.0000
     1.0000   1.0000   1.0000   1.0000   1.0000

          k =-0.4999-0.0000-0.3553 (  3790 PWs)   bands (ev):

  -115.6911 -70.0663 -70.0414 -70.0408 -65.0137 -32.0207 -31.9977 -31.9864
    -9.6070  -8.9202   1.8358   1.9486   2.2897   2.3341   2.8343   3.4679
     4.2687   4.7208   5.1907   6.0596   7.0258

     occupation numbers 
     1.0000   1.0000   1.0000   1.0000   1.0000   1.0000   1.0000   1.0000
     1.0000   1.0000   1.0000   1.0000   1.0000   1.0000   1.0000   1.0000
     1.0000   1.0000   1.0000   1.0000   1.0000

          k =-0.4999-0.0000-0.2664 (  3781 PWs)   bands (ev):

  -115.6911 -70.0663 -70.0414 -70.0408 -65.0137 -32.0206 -31.9977 -31.9864
    -9.6159  -8.9193   1.8443   1.9863   2.3148   2.4097   2.8410   3.4765
     4.2077   4.7033   5.2908   5.9443   6.8766

     occupation numbers 
     1.0000   1.0000   1.0000   1.0000   1.0000   1.0000   1.0000   1.0000
     1.0000   1.0000   1.0000   1.0000   1.0000   1.0000   1.0000   1.0000
     1.0000   1.0000   1.0000   1.0000   1.0000

          k =-0.4999 0.0000-0.1776 (  3788 PWs)   bands (ev):

  -115.6911 -70.0663 -70.0414 -70.0408 -65.0137 -32.0205 -31.9977 -31.9864
    -9.6369  -8.9174   1.8545   2.0803   2.3468   2.6498   2.8610   3.5268
     4.0703   4.7215   5.4298   5.6521   6.5140

     occupation numbers 
     1.0000   1.0000   1.0000   1.0000   1.0000   1.0000   1.0000   1.0000
     1.0000   1.0000   1.0000   1.0000   1.0000   1.0000   1.0000   1.0000
     1.0000   1.0000   1.0000   1.0000   1.0000

          k =-0.4999 0.0000-0.0888 (  3784 PWs)   bands (ev):

  -115.6911 -70.0663 -70.0414 -70.0408 -65.0137 -32.0204 -31.9977 -31.9864
    -9.6574  -8.9160   1.8576   2.1732   2.3865   2.8575   2.9230   3.7236
     3.9532   4.7769   5.0607   5.6612   6.1537

     occupation numbers 
     1.0000   1.0000   1.0000   1.0000   1.0000   1.0000   1.0000   1.0000
     1.0000   1.0000   1.0000   1.0000   1.0000   1.0000   1.0000   1.0000
     1.0000   1.0000   1.0000   1.0000   1.0000

          k =-0.4999 0.1443 0.0000 (  3780 PWs)   bands (ev):

  -115.6911 -70.0663 -70.0415 -70.0407 -65.0137 -32.0203 -32.0000 -31.9842
    -9.6624  -8.9174   1.7537   2.2669   2.3886   2.8954   2.9597   3.6678
     4.3080   4.6014   4.8096   5.9251   6.0227

     occupation numbers 
     1.0000   1.0000   1.0000   1.0000   1.0000   1.0000   1.0000   1.0000
     1.0000   1.0000   1.0000   1.0000   1.0000   1.0000   1.0000   1.0000
     1.0000   1.0000   1.0000   1.0000   1.0000

          k =-0.4999 0.1443 0.0888 (  3778 PWs)   bands (ev):

  -115.6911 -70.0663 -70.0415 -70.0407 -65.0137 -32.0204 -32.0000 -31.9842
    -9.6543  -8.9175   1.7383   2.2506   2.3672   2.8759   2.9232   3.4397
     4.2367   4.7515   5.0641   5.8882   6.1357

     occupation numbers 
     1.0000   1.0000   1.0000   1.0000   1.0000   1.0000   1.0000   1.0000
     1.0000   1.0000   1.0000   1.0000   1.0000   1.0000   1.0000   1.0000
     1.0000   1.0000   1.0000   1.0000   1.0000

          k =-0.4999 0.1443 0.1776 (  3780 PWs)   bands (ev):

  -115.6911 -70.0663 -70.0415 -70.0407 -65.0137 -32.0205 -31.9999 -31.9842
    -9.6345  -8.9180   1.7098   2.1797   2.3338   2.6568   2.8758   3.2730
     4.2772   4.7925   5.4687   5.8138   6.4714

     occupation numbers 
     1.0000   1.0000   1.0000   1.0000   1.0000   1.0000   1.0000   1.0000
     1.0000   1.0000   1.0000   1.0000   1.0000   1.0000   1.0000   1.0000
     1.0000   1.0000   1.0000   1.0000   1.0000

          k =-0.4999 0.1443 0.2664 (  3787 PWs)   bands (ev):

  -115.6911 -70.0663 -70.0415 -70.0407 -65.0137 -32.0206 -31.9999 -31.9842
    -9.6142  -8.9188   1.6783   2.0976   2.3100   2.4009   2.8568   3.2509
     4.3092   4.9064   5.4978   5.9086   6.8223

     occupation numbers 
     1.0000   1.0000   1.0000   1.0000   1.0000   1.0000   1.0000   1.0000
     1.0000   1.0000   1.0000   1.0000   1.0000   1.0000   1.0000   1.0000
     1.0000   1.0000   1.0000   1.0000   1.0000

          k =-0.4999 0.1443-0.3553 (  3790 PWs)   bands (ev):

  -115.6911 -70.0663 -70.0415 -70.0407 -65.0137 -32.0207 -31.9999 -31.9842
    -9.6057  -8.9192   1.6664   2.0496   2.2834   2.3337   2.8494   3.2574
     4.3114   4.9979   5.4054   5.9905   6.9744

     occupation numbers 
     1.0000   1.0000   1.0000   1.0000   1.0000   1.0000   1.0000   1.0000
     1.0000   1.0000   1.0000   1.0000   1.0000   1.0000   1.0000   1.0000
     1.0000   1.0000   1.0000   1.0000   1.0000

          k =-0.4999 0.1443-0.2664 (  3787 PWs)   bands (ev):

  -115.6911 -70.0663 -70.0415 -70.0407 -65.0137 -32.0206 -31.9999 -31.9842
    -9.6143  -8.9187   1.6895   2.0639   2.3124   2.4136   2.8552   3.2754
     4.2966   4.9002   5.4948   5.8894   6.8548

     occupation numbers 
     1.0000   1.0000   1.0000   1.0000   1.0000   1.0000   1.0000   1.0000
     1.0000   1.0000   1.0000   1.0000   1.0000   1.0000   1.0000   1.0000
     1.0000   1.0000   1.0000   1.0000   1.0000

          k =-0.4999 0.1443-0.1776 (  3780 PWs)   bands (ev):

  -115.6911 -70.0663 -70.0415 -70.0407 -65.0137 -32.0205 -31.9999 -31.9842
    -9.6346  -8.9178   1.7292   2.1329   2.3341   2.6616   2.8711   3.3309
     4.2710   4.7642   5.4247   5.8207   6.5203

     occupation numbers 
     1.0000   1.0000   1.0000   1.0000   1.0000   1.0000   1.0000   1.0000
     1.0000   1.0000   1.0000   1.0000   1.0000   1.0000   1.0000   1.0000
     1.0000   1.0000   1.0000   1.0000   1.0000

          k =-0.4999 0.1443-0.0888 (  3778 PWs)   bands (ev):

  -115.6911 -70.0663 -70.0415 -70.0407 -65.0137 -32.0204 -32.0000 -31.9842
    -9.6544  -8.9174   1.7525   2.2229   2.3633   2.8841   2.8944   3.5134
     4.2692   4.6677   5.0303   5.9212   6.1570

     occupation numbers 
     1.0000   1.0000   1.0000   1.0000   1.0000   1.0000   1.0000   1.0000
     1.0000   1.0000   1.0000   1.0000   1.0000   1.0000   1.0000   1.0000
     1.0000   1.0000   1.0000   1.0000   1.0000

          k =-0.4999-0.8658-0.0000 (  3794 PWs)   bands (ev):

  -115.6911 -70.0663 -70.0417 -70.0406 -65.0137 -32.0203 -32.0017 -31.9825
    -9.6591  -8.9192   1.6700   2.3164   2.3502   2.9179   2.9376   3.6026
     4.2913   4.6195   4.9031   5.9657   6.1757

     occupation numbers 
     1.0000   1.0000   1.0000   1.0000   1.0000   1.0000   1.0000   1.0000
     1.0000   1.0000   1.0000   1.0000   1.0000   1.0000   1.0000   1.0000
     1.0000   1.0000   1.0000   1.0000   1.0000

          k =-0.4999-0.8658 0.0888 (  3772 PWs)   bands (ev):

  -115.6911 -70.0663 -70.0416 -70.0406 -65.0137 -32.0204 -32.0017 -31.9825
    -9.6513  -8.9189   1.6578   2.2997   2.3138   2.8956   2.9103   3.3806
     4.2590   4.9108   4.9484   6.1155   6.1359

     occupation numbers 
     1.0000   1.0000   1.0000   1.0000   1.0000   1.0000   1.0000   1.0000
     1.0000   1.0000   1.0000   1.0000   1.0000   1.0000   1.0000   1.0000
     1.0000   1.0000   1.0000   1.0000   1.0000

          k =-0.4999-0.8658 0.1776 (  3776 PWs)   bands (ev):

  -115.6911 -70.0663 -70.0416 -70.0406 -65.0137 -32.0205 -32.0017 -31.9825
    -9.6322  -8.9184   1.6236   2.1987   2.3075   2.6693   2.8927   3.1810
     4.2607   5.0708   5.3171   6.0262   6.4662

     occupation numbers 
     1.0000   1.0000   1.0000   1.0000   1.0000   1.0000   1.0000   1.0000
     1.0000   1.0000   1.0000   1.0000   1.0000   1.0000   1.0000   1.0000
     1.0000   1.0000   1.0000   1.0000   1.0000

          k =-0.4999-0.8658 0.2664 (  3788 PWs)   bands (ev):

  -115.6911 -70.0663 -70.0416 -70.0406 -65.0137 -32.0206 -32.0017 -31.9824
    -9.6126  -8.9182   1.5832   2.1166   2.3010   2.3997   2.8764   3.1427
     4.2679   5.2282   5.6164   5.8805   6.7832

     occupation numbers 
     1.0000   1.0000   1.0000   1.0000   1.0000   1.0000   1.0000   1.0000
     1.0000   1.0000   1.0000   1.0000   1.0000   1.0000   1.0000   1.0000
     1.0000   1.0000   1.0000   1.0000   1.0000

          k =-0.4999-0.8658-0.3553 (  3772 PWs)   bands (ev):

  -115.6911 -70.0663 -70.0416 -70.0405 -65.0137 -32.0207 -32.0016 -31.9824
    -9.6044  -8.9182   1.5653   2.0831   2.2983   2.2995   2.8699   3.1374
     4.2704   5.3186   5.7306   5.7946   6.9014

     occupation numbers 
     1.0000   1.0000   1.0000   1.0000   1.0000   1.0000   1.0000   1.0000
     1.0000   1.0000   1.0000   1.0000   1.0000   1.0000   1.0000   1.0000
     1.0000   1.0000   1.0000   1.0000   1.0000

     highest occupied level (ev):     7.0787

!    total energy              =    -651.12628319 Ry
     Harris-Foulkes estimate   =    -651.12628319 Ry
     estimated scf accuracy    <          1.6E-10 Ry

     The total energy is the sum of the following terms:

     one-electron contribution =    -530.53472746 Ry
     hartree contribution      =     278.89276573 Ry
     xc contribution           =     -73.08032040 Ry
     ewald contribution        =    -326.40400105 Ry

     convergence has been achieved in  10 iterations

     Forces acting on atoms (cartesian axes, Ry/au):

     atom    1 type  3   force =     0.00000001   -0.00000003   -0.00144313
     atom    2 type  3   force =    -0.00000010    0.00000028   -0.00710819
     atom    3 type  2   force =     0.00000023    0.00000043    0.01311471
     atom    4 type  1   force =    -0.00000015   -0.00000069   -0.00456339
     The non-local contrib.  to forces
     atom    1 type  3   force =    -0.00000033   -0.00000115   -0.16563383
     atom    2 type  3   force =     0.00000014    0.00000104   -0.01412523
     atom    3 type  2   force =     0.00000080   -0.00000381   -0.27804337
     atom    4 type  1   force =     0.00000046   -0.00000089   -0.09724235
     The ionic contribution  to forces
     atom    1 type  3   force =    -0.00000340    0.00002466    4.64915242
     atom    2 type  3   force =    -0.00000531    0.00001308   -2.49668216
     atom    3 type  2   force =     0.00000423   -0.00002346   -1.00222486
     atom    4 type  1   force =     0.00000449   -0.00001427   -1.15024540
     The local contribution  to forces
     atom    1 type  3   force =     0.00000373   -0.00002353   -4.48626520
     atom    2 type  3   force =     0.00000508   -0.00001381    2.50416039
     atom    3 type  2   force =    -0.00000481    0.00002768    1.29339205
     atom    4 type  1   force =    -0.00000509    0.00001448    1.24292301
     The core correction contribution to forces
     atom    1 type  3   force =     0.00000001   -0.00000001    0.00130053
     atom    2 type  3   force =     0.00000000   -0.00000002   -0.00045971
     atom    3 type  2   force =     0.00000000    0.00000000    0.00000000
     atom    4 type  1   force =     0.00000000    0.00000000    0.00000000
     The Hubbard contrib.    to forces
     atom    1 type  3   force =     0.00000000    0.00000000    0.00000000
     atom    2 type  3   force =     0.00000000    0.00000000    0.00000000
     atom    3 type  2   force =     0.00000000    0.00000000    0.00000000
     atom    4 type  1   force =     0.00000000    0.00000000    0.00000000
     The SCF correction term to forces
     atom    1 type  3   force =     0.00000000    0.00000000    0.00000000
     atom    2 type  3   force =     0.00000000    0.00000000    0.00000000
     atom    3 type  2   force =     0.00000000    0.00000000    0.00000000
     atom    4 type  1   force =     0.00000000    0.00000000    0.00000000

     Total force =     0.000000     Total SCF correction =     0.000000


     Computing stress (Cartesian axis) and pressure

          total   stress  (Ry/bohr**3)                   (kbar)     P=    1.30
   0.00000879   0.00000000  -0.00000001          1.29      0.00     -0.00
   0.00000000   0.00000879   0.00000001          0.00      1.29      0.00
  -0.00000001   0.00000001   0.00000885         -0.00      0.00      1.30

     kinetic stress (kbar)  26957.37      0.00     -0.00
                                0.00  26957.37      0.00
                               -0.00      0.00  27133.38

     local   stress (kbar) -15032.80     -0.01     -0.03
                               -0.01 -15032.82      0.04
                               -0.03      0.04  -1234.80

     nonloc. stress (kbar)   1825.94      0.00      0.00
                                0.00   1825.94     -0.00
                                0.00     -0.00   1750.09

     hartree stress (kbar)  45830.41      0.01      0.01
                                0.01  45830.42     -0.02
                                0.01     -0.02  39591.41

     exc-cor stress (kbar) -10673.17      0.00      0.00
                                0.00 -10673.17     -0.00
                                0.00     -0.00 -10676.61

     corecor stress (kbar)   -254.28      0.00      0.00
                                0.00   -254.28     -0.00
                                0.00     -0.00   -254.59

     ewald   stress (kbar) -48652.17      0.01      0.02
                                0.01 -48652.17     -0.02
                                0.02     -0.02 -56307.59

     hubbard stress (kbar)      0.00      0.00      0.00
                                0.00      0.00      0.00
                                0.00      0.00      0.00

     london  stress (kbar)      0.00      0.00      0.00
                                0.00      0.00      0.00
                                0.00      0.00      0.00

     DFT-D3  stress (kbar)      0.00      0.00      0.00
                                0.00      0.00      0.00
                                0.00      0.00      0.00

     XDM     stress (kbar)      0.00      0.00      0.00
                                0.00      0.00      0.00
                                0.00      0.00      0.00

     dft-nl  stress (kbar)      0.00      0.00      0.00
                                0.00      0.00      0.00
                                0.00      0.00      0.00

     TS-vdW  stress (kbar)      0.00      0.00      0.00
                                0.00      0.00      0.00
                                0.00      0.00      0.00



     Writing output data file ZnO.save/
 
     init_run     :      1.14s CPU      3.36s WALL (       2 calls)
     electrons    :    137.41s CPU    148.46s WALL (      13 calls)
     update_pot   :      1.77s CPU      1.79s WALL (      11 calls)
     forces       :      2.02s CPU      2.17s WALL (      13 calls)
     stress       :      3.70s CPU      3.85s WALL (      13 calls)

     Called by init_run:
     wfcinit      :      0.68s CPU      1.71s WALL (       2 calls)
     wfcinit:atom :      0.01s CPU      0.01s WALL (     130 calls)
     wfcinit:wfcr :      0.65s CPU      1.67s WALL (     130 calls)
     potinit      :      0.13s CPU      0.41s WALL (       2 calls)
     hinit0       :      0.29s CPU      0.92s WALL (       2 calls)

     Called by electrons:
     c_bands      :    113.90s CPU    123.78s WALL (     164 calls)
     sum_band     :     17.54s CPU     18.13s WALL (     164 calls)
     v_of_rho     :      4.72s CPU      4.98s WALL (     175 calls)
     v_h          :      0.06s CPU      0.07s WALL (     175 calls)
     v_xc         :      5.34s CPU      5.58s WALL (     201 calls)
     newd         :      1.16s CPU      1.20s WALL (     175 calls)
     mix_rho      :      0.21s CPU      0.27s WALL (     164 calls)

     Called by c_bands:
     init_us_2    :      1.89s CPU      2.02s WALL (   23140 calls)
     cegterg      :    105.61s CPU    111.23s WALL (   10660 calls)

     Called by sum_band:
     sum_band:bec :      0.11s CPU      0.12s WALL (   10660 calls)
     addusdens    :      1.19s CPU      1.22s WALL (     164 calls)

     Called by *egterg:
     h_psi        :     64.21s CPU     66.56s WALL (   32252 calls)
     s_psi        :      2.07s CPU      2.14s WALL (   32252 calls)
     g_psi        :      0.14s CPU      0.14s WALL (   21462 calls)
     cdiaghg      :     24.51s CPU     27.48s WALL (   31277 calls)
     cegterg:over :      6.86s CPU      7.86s WALL (   21462 calls)
     cegterg:upda :      3.52s CPU      3.60s WALL (   21462 calls)
     cegterg:last :      2.35s CPU      2.40s WALL (   11014 calls)
     cdiaghg:chol :      1.27s CPU      1.78s WALL (   31277 calls)
     cdiaghg:inve :      0.46s CPU      0.55s WALL (   31277 calls)
     cdiaghg:para :      2.49s CPU      2.67s WALL (   62554 calls)

     Called by h_psi:
     h_psi:pot    :     64.03s CPU     66.38s WALL (   32252 calls)
     h_psi:calbec :      3.48s CPU      3.61s WALL (   32252 calls)
     vloc_psi     :     58.33s CPU     60.47s WALL (   32252 calls)
     add_vuspsi   :      2.12s CPU      2.21s WALL (   32252 calls)

     General routines
     calbec       :      5.26s CPU      5.45s WALL (   47137 calls)
     fft          :      0.81s CPU      0.94s WALL (    2587 calls)
     ffts         :      0.05s CPU      0.05s WALL (     339 calls)
     fftw         :     67.35s CPU     69.73s WALL ( 1327920 calls)
     interpolate  :      0.07s CPU      0.08s WALL (     175 calls)
 
     Parallel routines
     fft_scatt_xy :     10.73s CPU     11.11s WALL ( 1330846 calls)
     fft_scatt_yz :     33.81s CPU     35.04s WALL ( 1330846 calls)
 
     PWSCF        :   2m26.77s CPU   2m44.05s WALL

 
   This run was terminated on:  20: 8: 6  16Jun2022            

=------------------------------------------------------------------------------=
   JOB DONE.
=------------------------------------------------------------------------------=
