
     Program PWSCF v.6.4.1 starts on 15Jun2022 at 20:52:19 

     This program is part of the open-source Quantum ESPRESSO suite
     for quantum simulation of materials; please cite
         "P. Giannozzi et al., J. Phys.:Condens. Matter 21 395502 (2009);
         "P. Giannozzi et al., J. Phys.:Condens. Matter 29 465901 (2017);
          URL http://www.quantum-espresso.org", 
     in publications or presentations arising from this work. More details at
     http://www.quantum-espresso.org/quote

     Parallel version (MPI), running on    64 processors

     MPI processes distributed on     1 nodes
     K-points division:     npool     =       4
     R & G space division:  proc/nbgrp/npool/nimage =      16
     Waiting for input...
     Reading input from standard input
Warning: card &IONS ignored
Warning: card   UPSCALE           = 100.D0, ignored
Warning: card / ignored
Warning: card &CELL ignored
Warning: card   CELL_DYNAMICS     = 'BFGS' ignored
Warning: card   PRESS_CONV_THR    = 0.5D0 ignored
Warning: card   CELL_DOFREE = 'ALL' ignored
Warning: card / ignored

     Current dimensions of program PWSCF are:
     Max number of different atomic species (ntypx) = 10
     Max number of k-points (npk) =  40000
     Max angular momentum in pseudopotentials (lmaxx) =  3

     Subspace diagonalization in iterative solution of the eigenvalue problem:
     one sub-group per band group will be used
     scalapack distributed-memory algorithm (size of sub-group:  2*  2 procs)

 
     Parallelization info
     --------------------
     sticks:   dense  smooth     PW     G-vecs:    dense   smooth      PW
     Min         111      59     18                 4685     1825     319
     Max         112      60     20                 4690     1830     323
     Sum        1789     955    301                75003    29261    5137
 


     bravais-lattice index     =            0
     lattice parameter (alat)  =       6.5581  a.u.
     unit-cell volume          =     301.5540 (a.u.)^3
     number of atoms/cell      =            4
     number of atomic types    =            2
     number of electrons       =        32.00
     number of Kohn-Sham states=           16
     kinetic-energy cutoff     =      80.0000  Ry
     charge density cutoff     =     600.0000  Ry
     convergence threshold     =      1.0E-06
     mixing beta               =       0.5000
     number of iterations used =            8  plain     mixing
     Exchange-correlation      = SLA  PW   PSX  PSC ( 1  4 10  8 0 0)
     Using LIBXC version       =    4   3   4

     celldm(1)=   6.558119  celldm(2)=   0.000000  celldm(3)=   0.000000
     celldm(4)=   0.000000  celldm(5)=   0.000000  celldm(6)=   0.000000

     crystal axes: (cart. coord. in units of alat)
               a(1) = (   1.000000   0.000000   0.000000 )  
               a(2) = (  -0.500000   0.866025   0.000000 )  
               a(3) = (   0.000000   0.000000   1.234515 )  

     reciprocal axes: (cart. coord. in units 2 pi/alat)
               b(1) = (  1.000000  0.577350 -0.000000 )  
               b(2) = ( -0.000000  1.154700 -0.000000 )  
               b(3) = ( -0.000000 -0.000000  0.810034 )  


     PseudoPot. # 1 for Mg read from file:
     ./GBRV_PBEsol/mg_pbesol_v1.4.uspp.F.UPF
     MD5 check sum: 4059f37963cf5867752dbf5ab2400678
     Pseudo is Ultrasoft, Zval = 10.0
     Generated by new atomic code, or converted to UPF format
     Using radial grid of  821 points,  7 beta functions with: 
                l(1) =   0
                l(2) =   0
                l(3) =   0
                l(4) =   1
                l(5) =   1
                l(6) =   2
                l(7) =   2
     Q(r) pseudized with  8 coefficients,  rinner =    1.200   1.200   1.200
                                                       1.200   1.200

     PseudoPot. # 2 for O  read from file:
     ./GBRV_PBEsol/o_pbesol_v1.2.uspp.F.UPF
     MD5 check sum: 501638753501ef6325af9037351f7734
     Pseudo is Ultrasoft + core correction, Zval =  6.0
     Generated by new atomic code, or converted to UPF format
     Using radial grid of  737 points,  5 beta functions with: 
                l(1) =   0
                l(2) =   0
                l(3) =   1
                l(4) =   1
                l(5) =   2
     Q(r) pseudized with  8 coefficients,  rinner =    0.900   0.900   0.900
                                                       0.900   0.900

     atomic species   valence    mass     pseudopotential
        Mg            10.00    24.30500     Mg( 1.00)
        O              6.00    15.99900     O ( 1.00)

     No symmetry found


                                    s                        frac. trans.

      isym =  1     identity                                     

 cryst.   s( 1) = (     1          0          0      )
                  (     0          1          0      )
                  (     0          0          1      )

 cart.    s( 1) = (  1.0000000  0.0000000  0.0000000 )
                  ( -0.0000000  1.0000000 -0.0000000 )
                  ( -0.0000000 -0.0000000  1.0000000 )


   Cartesian axes

     site n.     atom                  positions (alat units)
         1           O   tau(   1) = (   0.5000002   0.2886755   0.0090687  )
         2           O   tau(   2) = (   0.0000002   0.5773495   0.6263262  )
         3           Mg  tau(   3) = (   0.5000001   0.2886749   0.6621374  )
         4           Mg  tau(   4) = (  -0.0000000   0.5773514   1.2793950  )

   Crystallographic axes

     site n.     atom                  positions (cryst. coord.)
         1           O   tau(   1) = (  0.6666670  0.3333337  0.0073459  )
         2           O   tau(   2) = (  0.3333329  0.6666657  0.5073458  )
         3           Mg  tau(   3) = (  0.6666664  0.3333329  0.5363540  )
         4           Mg  tau(   4) = (  0.3333336  0.6666677  1.0363539  )

     number of k points=   260
                       cart. coord. in units 2pi/alat
        k(    1) = (   0.0000000   0.0000000   0.0000000), wk =   0.0039062
        k(    2) = (  -0.0000000  -0.0000000   0.1012543), wk =   0.0078125
        k(    3) = (  -0.0000000  -0.0000000   0.2025086), wk =   0.0078125
        k(    4) = (  -0.0000000  -0.0000000   0.3037629), wk =   0.0078125
        k(    5) = (   0.0000001   0.0000001  -0.4050172), wk =   0.0039062
        k(    6) = (  -0.0000000   0.1443376  -0.0000000), wk =   0.0078125
        k(    7) = (  -0.0000000   0.1443375   0.1012543), wk =   0.0078125
        k(    8) = (  -0.0000000   0.1443375   0.2025086), wk =   0.0078125
        k(    9) = (  -0.0000001   0.1443375   0.3037629), wk =   0.0078125
        k(   10) = (   0.0000000   0.1443376  -0.4050173), wk =   0.0078125
        k(   11) = (   0.0000000   0.1443376  -0.3037629), wk =   0.0078125
        k(   12) = (   0.0000000   0.1443376  -0.2025086), wk =   0.0078125
        k(   13) = (   0.0000000   0.1443376  -0.1012543), wk =   0.0078125
        k(   14) = (  -0.0000000   0.2886751  -0.0000000), wk =   0.0078125
        k(   15) = (  -0.0000000   0.2886751   0.1012543), wk =   0.0078125
        k(   16) = (  -0.0000001   0.2886751   0.2025086), wk =   0.0078125
        k(   17) = (  -0.0000001   0.2886751   0.3037629), wk =   0.0078125
        k(   18) = (   0.0000000   0.2886752  -0.4050173), wk =   0.0078125
        k(   19) = (   0.0000000   0.2886752  -0.3037630), wk =   0.0078125
        k(   20) = (   0.0000000   0.2886752  -0.2025087), wk =   0.0078125
        k(   21) = (  -0.0000000   0.2886751  -0.1012543), wk =   0.0078125
        k(   22) = (  -0.0000000   0.4330127  -0.0000001), wk =   0.0078125
        k(   23) = (  -0.0000001   0.4330127   0.1012543), wk =   0.0078125
        k(   24) = (  -0.0000001   0.4330126   0.2025086), wk =   0.0078125
        k(   25) = (  -0.0000001   0.4330126   0.3037629), wk =   0.0078125
        k(   26) = (   0.0000000   0.4330127  -0.4050173), wk =   0.0078125
        k(   27) = (   0.0000000   0.4330127  -0.3037630), wk =   0.0078125
        k(   28) = (  -0.0000000   0.4330127  -0.2025087), wk =   0.0078125
        k(   29) = (  -0.0000000   0.4330127  -0.1012544), wk =   0.0078125
        k(   30) = (   0.0000001  -0.5773502   0.0000001), wk =   0.0039062
        k(   31) = (   0.0000000  -0.5773503   0.1012544), wk =   0.0078125
        k(   32) = (   0.0000000  -0.5773503   0.2025087), wk =   0.0078125
        k(   33) = (   0.0000000  -0.5773503   0.3037630), wk =   0.0078125
        k(   34) = (   0.0000001  -0.5773502  -0.4050172), wk =   0.0039062
        k(   35) = (   0.1250000   0.0721688  -0.0000000), wk =   0.0078125
        k(   36) = (   0.1250000   0.0721688   0.1012543), wk =   0.0078125
        k(   37) = (   0.1250000   0.0721687   0.2025086), wk =   0.0078125
        k(   38) = (   0.1249999   0.0721687   0.3037629), wk =   0.0078125
        k(   39) = (   0.1250001   0.0721688  -0.4050173), wk =   0.0078125
        k(   40) = (   0.1250000   0.0721688  -0.3037629), wk =   0.0078125
        k(   41) = (   0.1250000   0.0721688  -0.2025086), wk =   0.0078125
        k(   42) = (   0.1250000   0.0721688  -0.1012543), wk =   0.0078125
        k(   43) = (   0.1250000   0.2165063  -0.0000000), wk =   0.0078125
        k(   44) = (   0.1250000   0.2165063   0.1012543), wk =   0.0078125
        k(   45) = (   0.1249999   0.2165063   0.2025086), wk =   0.0078125
        k(   46) = (   0.1249999   0.2165063   0.3037629), wk =   0.0078125
        k(   47) = (   0.1250000   0.2165064  -0.4050173), wk =   0.0078125
        k(   48) = (   0.1250000   0.2165064  -0.3037630), wk =   0.0078125
        k(   49) = (   0.1250000   0.2165064  -0.2025087), wk =   0.0078125
        k(   50) = (   0.1250000   0.2165063  -0.1012543), wk =   0.0078125
        k(   51) = (   0.1250000   0.3608439  -0.0000001), wk =   0.0078125
        k(   52) = (   0.1249999   0.3608439   0.1012543), wk =   0.0078125
        k(   53) = (   0.1249999   0.3608439   0.2025086), wk =   0.0078125
        k(   54) = (   0.1249999   0.3608438   0.3037629), wk =   0.0078125
        k(   55) = (   0.1250000   0.3608440  -0.4050173), wk =   0.0078125
        k(   56) = (   0.1250000   0.3608439  -0.3037630), wk =   0.0078125
        k(   57) = (   0.1250000   0.3608439  -0.2025087), wk =   0.0078125
        k(   58) = (   0.1250000   0.3608439  -0.1012544), wk =   0.0078125
        k(   59) = (   0.1250000   0.5051814  -0.0000001), wk =   0.0078125
        k(   60) = (   0.1249999   0.5051814   0.1012542), wk =   0.0078125
        k(   61) = (   0.1249999   0.5051814   0.2025085), wk =   0.0078125
        k(   62) = (   0.1249999   0.5051814   0.3037628), wk =   0.0078125
        k(   63) = (   0.1250000   0.5051815  -0.4050173), wk =   0.0078125
        k(   64) = (   0.1250000   0.5051815  -0.3037630), wk =   0.0078125
        k(   65) = (   0.1250000   0.5051815  -0.2025087), wk =   0.0078125
        k(   66) = (   0.1250000   0.5051815  -0.1012544), wk =   0.0078125
        k(   67) = (   0.1250000  -0.5051815   0.0000001), wk =   0.0078125
        k(   68) = (   0.1250000  -0.5051815   0.1012544), wk =   0.0078125
        k(   69) = (   0.1250000  -0.5051815   0.2025087), wk =   0.0078125
        k(   70) = (   0.1250000  -0.5051815   0.3037630), wk =   0.0078125
        k(   71) = (   0.1250001  -0.5051814  -0.4050172), wk =   0.0078125
        k(   72) = (   0.1250001  -0.5051814  -0.3037629), wk =   0.0078125
        k(   73) = (   0.1250001  -0.5051814  -0.2025086), wk =   0.0078125
        k(   74) = (   0.1250001  -0.5051815  -0.1012543), wk =   0.0078125
        k(   75) = (   0.1250000  -0.3608439   0.0000000), wk =   0.0078125
        k(   76) = (   0.1250000  -0.3608439   0.1012543), wk =   0.0078125
        k(   77) = (   0.1250000  -0.3608439   0.2025087), wk =   0.0078125
        k(   78) = (   0.1250000  -0.3608440   0.3037630), wk =   0.0078125
        k(   79) = (   0.1250001  -0.3608438  -0.4050172), wk =   0.0078125
        k(   80) = (   0.1250001  -0.3608439  -0.3037629), wk =   0.0078125
        k(   81) = (   0.1250001  -0.3608439  -0.2025086), wk =   0.0078125
        k(   82) = (   0.1250001  -0.3608439  -0.1012543), wk =   0.0078125
        k(   83) = (   0.1250000  -0.2165064   0.0000000), wk =   0.0078125
        k(   84) = (   0.1250000  -0.2165064   0.1012543), wk =   0.0078125
        k(   85) = (   0.1250000  -0.2165064   0.2025086), wk =   0.0078125
        k(   86) = (   0.1250000  -0.2165064   0.3037629), wk =   0.0078125
        k(   87) = (   0.1250001  -0.2165063  -0.4050172), wk =   0.0078125
        k(   88) = (   0.1250001  -0.2165063  -0.3037629), wk =   0.0078125
        k(   89) = (   0.1250001  -0.2165063  -0.2025086), wk =   0.0078125
        k(   90) = (   0.1250000  -0.2165063  -0.1012543), wk =   0.0078125
        k(   91) = (   0.1250000  -0.0721688  -0.0000000), wk =   0.0078125
        k(   92) = (   0.1250000  -0.0721688   0.1012543), wk =   0.0078125
        k(   93) = (   0.1250000  -0.0721688   0.2025086), wk =   0.0078125
        k(   94) = (   0.1250000  -0.0721688   0.3037629), wk =   0.0078125
        k(   95) = (   0.1250001  -0.0721687  -0.4050172), wk =   0.0078125
        k(   96) = (   0.1250001  -0.0721687  -0.3037629), wk =   0.0078125
        k(   97) = (   0.1250000  -0.0721688  -0.2025086), wk =   0.0078125
        k(   98) = (   0.1250000  -0.0721688  -0.1012543), wk =   0.0078125
        k(   99) = (   0.2500000   0.1443375  -0.0000000), wk =   0.0078125
        k(  100) = (   0.2500000   0.1443375   0.1012543), wk =   0.0078125
        k(  101) = (   0.2500000   0.1443375   0.2025086), wk =   0.0078125
        k(  102) = (   0.2499999   0.1443375   0.3037629), wk =   0.0078125
        k(  103) = (   0.2500000   0.1443376  -0.4050173), wk =   0.0078125
        k(  104) = (   0.2500000   0.1443376  -0.3037630), wk =   0.0078125
        k(  105) = (   0.2500000   0.1443376  -0.2025087), wk =   0.0078125
        k(  106) = (   0.2500000   0.1443376  -0.1012543), wk =   0.0078125
        k(  107) = (   0.2500000   0.2886751  -0.0000001), wk =   0.0078125
        k(  108) = (   0.2500000   0.2886751   0.1012542), wk =   0.0078125
        k(  109) = (   0.2499999   0.2886751   0.2025086), wk =   0.0078125
        k(  110) = (   0.2499999   0.2886750   0.3037629), wk =   0.0078125
        k(  111) = (   0.2500000   0.2886752  -0.4050173), wk =   0.0078125
        k(  112) = (   0.2500000   0.2886751  -0.3037630), wk =   0.0078125
        k(  113) = (   0.2500000   0.2886751  -0.2025087), wk =   0.0078125
        k(  114) = (   0.2500000   0.2886751  -0.1012544), wk =   0.0078125
        k(  115) = (   0.2500000   0.4330127  -0.0000001), wk =   0.0078125
        k(  116) = (   0.2499999   0.4330126   0.1012542), wk =   0.0078125
        k(  117) = (   0.2499999   0.4330126   0.2025085), wk =   0.0078125
        k(  118) = (   0.2499999   0.4330126   0.3037628), wk =   0.0078125
        k(  119) = (   0.2500000   0.4330127  -0.4050173), wk =   0.0078125
        k(  120) = (   0.2500000   0.4330127  -0.3037630), wk =   0.0078125
        k(  121) = (   0.2500000   0.4330127  -0.2025087), wk =   0.0078125
        k(  122) = (   0.2500000   0.4330127  -0.1012544), wk =   0.0078125
        k(  123) = (   0.2499999   0.5773502  -0.0000001), wk =   0.0078125
        k(  124) = (   0.2499999   0.5773502   0.1012542), wk =   0.0078125
        k(  125) = (   0.2499999   0.5773502   0.2025085), wk =   0.0078125
        k(  126) = (   0.2499999   0.5773502   0.3037628), wk =   0.0078125
        k(  127) = (   0.2500000   0.5773503  -0.4050173), wk =   0.0078125
        k(  128) = (   0.2500000   0.5773503  -0.3037630), wk =   0.0078125
        k(  129) = (   0.2500000   0.5773502  -0.2025087), wk =   0.0078125
        k(  130) = (   0.2500000   0.5773502  -0.1012544), wk =   0.0078125
        k(  131) = (   0.2500000  -0.4330127   0.0000000), wk =   0.0078125
        k(  132) = (   0.2500000  -0.4330127   0.1012543), wk =   0.0078125
        k(  133) = (   0.2500000  -0.4330127   0.2025087), wk =   0.0078125
        k(  134) = (   0.2500000  -0.4330128   0.3037630), wk =   0.0078125
        k(  135) = (   0.2500001  -0.4330126  -0.4050172), wk =   0.0078125
        k(  136) = (   0.2500001  -0.4330127  -0.3037629), wk =   0.0078125
        k(  137) = (   0.2500001  -0.4330127  -0.2025086), wk =   0.0078125
        k(  138) = (   0.2500001  -0.4330127  -0.1012543), wk =   0.0078125
        k(  139) = (   0.2500000  -0.2886751   0.0000000), wk =   0.0078125
        k(  140) = (   0.2500000  -0.2886752   0.1012543), wk =   0.0078125
        k(  141) = (   0.2500000  -0.2886752   0.2025086), wk =   0.0078125
        k(  142) = (   0.2500000  -0.2886752   0.3037629), wk =   0.0078125
        k(  143) = (   0.2500001  -0.2886751  -0.4050172), wk =   0.0078125
        k(  144) = (   0.2500001  -0.2886751  -0.3037629), wk =   0.0078125
        k(  145) = (   0.2500001  -0.2886751  -0.2025086), wk =   0.0078125
        k(  146) = (   0.2500000  -0.2886751  -0.1012543), wk =   0.0078125
        k(  147) = (   0.2500000  -0.1443376  -0.0000000), wk =   0.0078125
        k(  148) = (   0.2500000  -0.1443376   0.1012543), wk =   0.0078125
        k(  149) = (   0.2500000  -0.1443376   0.2025086), wk =   0.0078125
        k(  150) = (   0.2500000  -0.1443376   0.3037629), wk =   0.0078125
        k(  151) = (   0.2500001  -0.1443375  -0.4050172), wk =   0.0078125
        k(  152) = (   0.2500001  -0.1443375  -0.3037629), wk =   0.0078125
        k(  153) = (   0.2500000  -0.1443376  -0.2025086), wk =   0.0078125
        k(  154) = (   0.2500000  -0.1443376  -0.1012543), wk =   0.0078125
        k(  155) = (   0.2500000  -0.0000000  -0.0000000), wk =   0.0078125
        k(  156) = (   0.2500000  -0.0000000   0.1012543), wk =   0.0078125
        k(  157) = (   0.2500000  -0.0000001   0.2025086), wk =   0.0078125
        k(  158) = (   0.2500000  -0.0000001   0.3037629), wk =   0.0078125
        k(  159) = (   0.2500001   0.0000000  -0.4050173), wk =   0.0078125
        k(  160) = (   0.2500000   0.0000000  -0.3037629), wk =   0.0078125
        k(  161) = (   0.2500000   0.0000000  -0.2025086), wk =   0.0078125
        k(  162) = (   0.2500000  -0.0000000  -0.1012543), wk =   0.0078125
        k(  163) = (   0.3750000   0.2165063  -0.0000001), wk =   0.0078125
        k(  164) = (   0.3750000   0.2165063   0.1012542), wk =   0.0078125
        k(  165) = (   0.3749999   0.2165063   0.2025086), wk =   0.0078125
        k(  166) = (   0.3749999   0.2165063   0.3037629), wk =   0.0078125
        k(  167) = (   0.3750000   0.2165064  -0.4050173), wk =   0.0078125
        k(  168) = (   0.3750000   0.2165064  -0.3037630), wk =   0.0078125
        k(  169) = (   0.3750000   0.2165063  -0.2025087), wk =   0.0078125
        k(  170) = (   0.3750000   0.2165063  -0.1012544), wk =   0.0078125
        k(  171) = (   0.3750000   0.3608439  -0.0000001), wk =   0.0078125
        k(  172) = (   0.3749999   0.3608438   0.1012542), wk =   0.0078125
        k(  173) = (   0.3749999   0.3608438   0.2025085), wk =   0.0078125
        k(  174) = (   0.3749999   0.3608438   0.3037628), wk =   0.0078125
        k(  175) = (   0.3750000   0.3608439  -0.4050173), wk =   0.0078125
        k(  176) = (   0.3750000   0.3608439  -0.3037630), wk =   0.0078125
        k(  177) = (   0.3750000   0.3608439  -0.2025087), wk =   0.0078125
        k(  178) = (   0.3750000   0.3608439  -0.1012544), wk =   0.0078125
        k(  179) = (   0.3750000   0.5051814  -0.0000001), wk =   0.0078125
        k(  180) = (   0.3749999   0.5051814   0.1012542), wk =   0.0078125
        k(  181) = (   0.3749999   0.5051814   0.2025085), wk =   0.0078125
        k(  182) = (   0.3749999   0.5051814   0.3037628), wk =   0.0078125
        k(  183) = (   0.3750000   0.5051815  -0.4050173), wk =   0.0078125
        k(  184) = (   0.3750000   0.5051815  -0.3037630), wk =   0.0078125
        k(  185) = (   0.3750000   0.5051815  -0.2025087), wk =   0.0078125
        k(  186) = (   0.3750000   0.5051814  -0.1012544), wk =   0.0078125
        k(  187) = (   0.3749999   0.6495190  -0.0000001), wk =   0.0078125
        k(  188) = (   0.3749999   0.6495190   0.1012542), wk =   0.0078125
        k(  189) = (   0.3749999   0.6495189   0.2025085), wk =   0.0078125
        k(  190) = (   0.3749999   0.6495189   0.3037628), wk =   0.0078125
        k(  191) = (   0.3750000   0.6495190  -0.4050173), wk =   0.0078125
        k(  192) = (   0.3750000   0.6495190  -0.3037630), wk =   0.0078125
        k(  193) = (   0.3750000   0.6495190  -0.2025087), wk =   0.0078125
        k(  194) = (   0.3750000   0.6495190  -0.1012544), wk =   0.0078125
        k(  195) = (   0.3750000  -0.3608439   0.0000000), wk =   0.0078125
        k(  196) = (   0.3750000  -0.3608440   0.1012543), wk =   0.0078125
        k(  197) = (   0.3750000  -0.3608440   0.2025086), wk =   0.0078125
        k(  198) = (   0.3750000  -0.3608440   0.3037629), wk =   0.0078125
        k(  199) = (   0.3750001  -0.3608439  -0.4050172), wk =   0.0078125
        k(  200) = (   0.3750001  -0.3608439  -0.3037629), wk =   0.0078125
        k(  201) = (   0.3750001  -0.3608439  -0.2025086), wk =   0.0078125
        k(  202) = (   0.3750001  -0.3608439  -0.1012543), wk =   0.0078125
        k(  203) = (   0.3750000  -0.2165064  -0.0000000), wk =   0.0078125
        k(  204) = (   0.3750000  -0.2165064   0.1012543), wk =   0.0078125
        k(  205) = (   0.3750000  -0.2165064   0.2025086), wk =   0.0078125
        k(  206) = (   0.3750000  -0.2165064   0.3037629), wk =   0.0078125
        k(  207) = (   0.3750001  -0.2165063  -0.4050172), wk =   0.0078125
        k(  208) = (   0.3750001  -0.2165063  -0.3037629), wk =   0.0078125
        k(  209) = (   0.3750001  -0.2165063  -0.2025086), wk =   0.0078125
        k(  210) = (   0.3750000  -0.2165064  -0.1012543), wk =   0.0078125
        k(  211) = (   0.3750000  -0.0721688  -0.0000000), wk =   0.0078125
        k(  212) = (   0.3750000  -0.0721688   0.1012543), wk =   0.0078125
        k(  213) = (   0.3750000  -0.0721688   0.2025086), wk =   0.0078125
        k(  214) = (   0.3750000  -0.0721689   0.3037629), wk =   0.0078125
        k(  215) = (   0.3750001  -0.0721688  -0.4050173), wk =   0.0078125
        k(  216) = (   0.3750001  -0.0721688  -0.3037629), wk =   0.0078125
        k(  217) = (   0.3750000  -0.0721688  -0.2025086), wk =   0.0078125
        k(  218) = (   0.3750000  -0.0721688  -0.1012543), wk =   0.0078125
        k(  219) = (   0.3750000   0.0721687  -0.0000000), wk =   0.0078125
        k(  220) = (   0.3750000   0.0721687   0.1012543), wk =   0.0078125
        k(  221) = (   0.3750000   0.0721687   0.2025086), wk =   0.0078125
        k(  222) = (   0.3749999   0.0721687   0.3037629), wk =   0.0078125
        k(  223) = (   0.3750001   0.0721688  -0.4050173), wk =   0.0078125
        k(  224) = (   0.3750000   0.0721688  -0.3037630), wk =   0.0078125
        k(  225) = (   0.3750000   0.0721688  -0.2025087), wk =   0.0078125
        k(  226) = (   0.3750000   0.0721688  -0.1012543), wk =   0.0078125
        k(  227) = (  -0.5000000  -0.2886751   0.0000001), wk =   0.0039062
        k(  228) = (  -0.5000000  -0.2886751   0.1012544), wk =   0.0078125
        k(  229) = (  -0.5000000  -0.2886751   0.2025087), wk =   0.0078125
        k(  230) = (  -0.5000000  -0.2886751   0.3037630), wk =   0.0078125
        k(  231) = (  -0.4999999  -0.2886750  -0.4050172), wk =   0.0039062
        k(  232) = (  -0.5000000  -0.1443375   0.0000001), wk =   0.0078125
        k(  233) = (  -0.5000000  -0.1443375   0.1012544), wk =   0.0078125
        k(  234) = (  -0.5000000  -0.1443375   0.2025087), wk =   0.0078125
        k(  235) = (  -0.5000000  -0.1443376   0.3037630), wk =   0.0078125
        k(  236) = (  -0.4999999  -0.1443374  -0.4050172), wk =   0.0078125
        k(  237) = (  -0.4999999  -0.1443375  -0.3037629), wk =   0.0078125
        k(  238) = (  -0.5000000  -0.1443375  -0.2025086), wk =   0.0078125
        k(  239) = (  -0.5000000  -0.1443375  -0.1012542), wk =   0.0078125
        k(  240) = (  -0.5000000   0.0000000   0.0000000), wk =   0.0078125
        k(  241) = (  -0.5000000   0.0000000   0.1012543), wk =   0.0078125
        k(  242) = (  -0.5000000   0.0000000   0.2025087), wk =   0.0078125
        k(  243) = (  -0.5000000  -0.0000000   0.3037630), wk =   0.0078125
        k(  244) = (  -0.4999999   0.0000001  -0.4050172), wk =   0.0078125
        k(  245) = (  -0.5000000   0.0000001  -0.3037629), wk =   0.0078125
        k(  246) = (  -0.5000000   0.0000001  -0.2025086), wk =   0.0078125
        k(  247) = (  -0.5000000   0.0000001  -0.1012543), wk =   0.0078125
        k(  248) = (  -0.5000000   0.1443376   0.0000000), wk =   0.0078125
        k(  249) = (  -0.5000000   0.1443376   0.1012543), wk =   0.0078125
        k(  250) = (  -0.5000000   0.1443376   0.2025086), wk =   0.0078125
        k(  251) = (  -0.5000001   0.1443376   0.3037629), wk =   0.0078125
        k(  252) = (  -0.5000000   0.1443377  -0.4050172), wk =   0.0078125
        k(  253) = (  -0.5000000   0.1443377  -0.3037629), wk =   0.0078125
        k(  254) = (  -0.5000000   0.1443376  -0.2025086), wk =   0.0078125
        k(  255) = (  -0.5000000   0.1443376  -0.1012543), wk =   0.0078125
        k(  256) = (  -0.4999999  -0.8660253   0.0000002), wk =   0.0039062
        k(  257) = (  -0.4999999  -0.8660253   0.1012545), wk =   0.0078125
        k(  258) = (  -0.4999999  -0.8660253   0.2025088), wk =   0.0078125
        k(  259) = (  -0.5000000  -0.8660254   0.3037631), wk =   0.0078125
        k(  260) = (  -0.4999999  -0.8660252  -0.4050171), wk =   0.0039062

                       cryst. coord.
        k(    1) = (   0.0000000   0.0000000   0.0000000), wk =   0.0039062
        k(    2) = (  -0.0000000   0.0000000   0.1250000), wk =   0.0078125
        k(    3) = (  -0.0000000   0.0000000   0.2500000), wk =   0.0078125
        k(    4) = (  -0.0000000   0.0000000   0.3750000), wk =   0.0078125
        k(    5) = (   0.0000000  -0.0000000  -0.5000000), wk =   0.0039062
        k(    6) = (  -0.0000000   0.1250000  -0.0000000), wk =   0.0078125
        k(    7) = (  -0.0000000   0.1250000   0.1250000), wk =   0.0078125
        k(    8) = (  -0.0000000   0.1250000   0.2500000), wk =   0.0078125
        k(    9) = (  -0.0000000   0.1250000   0.3750000), wk =   0.0078125
        k(   10) = (   0.0000000   0.1250000  -0.5000000), wk =   0.0078125
        k(   11) = (  -0.0000000   0.1250000  -0.3750000), wk =   0.0078125
        k(   12) = (  -0.0000000   0.1250000  -0.2500000), wk =   0.0078125
        k(   13) = (  -0.0000000   0.1250000  -0.1250000), wk =   0.0078125
        k(   14) = (  -0.0000000   0.2500000  -0.0000000), wk =   0.0078125
        k(   15) = (  -0.0000000   0.2500000   0.1250000), wk =   0.0078125
        k(   16) = (  -0.0000000   0.2500000   0.2500000), wk =   0.0078125
        k(   17) = (  -0.0000000   0.2500000   0.3750000), wk =   0.0078125
        k(   18) = (  -0.0000000   0.2500000  -0.5000000), wk =   0.0078125
        k(   19) = (   0.0000000   0.2500000  -0.3750000), wk =   0.0078125
        k(   20) = (  -0.0000000   0.2500000  -0.2500000), wk =   0.0078125
        k(   21) = (   0.0000000   0.2500000  -0.1250000), wk =   0.0078125
        k(   22) = (  -0.0000000   0.3750000   0.0000000), wk =   0.0078125
        k(   23) = (  -0.0000000   0.3750000   0.1250000), wk =   0.0078125
        k(   24) = (  -0.0000000   0.3750000   0.2500000), wk =   0.0078125
        k(   25) = (  -0.0000000   0.3750000   0.3750000), wk =   0.0078125
        k(   26) = (  -0.0000000   0.3750000  -0.5000000), wk =   0.0078125
        k(   27) = (   0.0000000   0.3750000  -0.3750000), wk =   0.0078125
        k(   28) = (  -0.0000000   0.3750000  -0.2500000), wk =   0.0078125
        k(   29) = (   0.0000000   0.3750000  -0.1250000), wk =   0.0078125
        k(   30) = (   0.0000000  -0.5000000   0.0000000), wk =   0.0039062
        k(   31) = (   0.0000000  -0.5000000   0.1250000), wk =   0.0078125
        k(   32) = (  -0.0000000  -0.5000000   0.2500000), wk =   0.0078125
        k(   33) = (   0.0000000  -0.5000000   0.3750000), wk =   0.0078125
        k(   34) = (   0.0000000  -0.5000000  -0.5000000), wk =   0.0039062
        k(   35) = (   0.1250000   0.0000000   0.0000000), wk =   0.0078125
        k(   36) = (   0.1250000   0.0000000   0.1250000), wk =   0.0078125
        k(   37) = (   0.1250000   0.0000000   0.2500000), wk =   0.0078125
        k(   38) = (   0.1250000   0.0000000   0.3750000), wk =   0.0078125
        k(   39) = (   0.1250000  -0.0000000  -0.5000000), wk =   0.0078125
        k(   40) = (   0.1250000   0.0000000  -0.3750000), wk =   0.0078125
        k(   41) = (   0.1250000  -0.0000000  -0.2500000), wk =   0.0078125
        k(   42) = (   0.1250000   0.0000000  -0.1250000), wk =   0.0078125
        k(   43) = (   0.1250000   0.1250000  -0.0000000), wk =   0.0078125
        k(   44) = (   0.1250000   0.1250000   0.1250000), wk =   0.0078125
        k(   45) = (   0.1250000   0.1250000   0.2500000), wk =   0.0078125
        k(   46) = (   0.1250000   0.1250000   0.3750000), wk =   0.0078125
        k(   47) = (   0.1250000   0.1250000  -0.5000000), wk =   0.0078125
        k(   48) = (   0.1250000   0.1250000  -0.3750000), wk =   0.0078125
        k(   49) = (   0.1250000   0.1250000  -0.2500000), wk =   0.0078125
        k(   50) = (   0.1250000   0.1250000  -0.1250000), wk =   0.0078125
        k(   51) = (   0.1250000   0.2500000  -0.0000000), wk =   0.0078125
        k(   52) = (   0.1250000   0.2500000   0.1250000), wk =   0.0078125
        k(   53) = (   0.1250000   0.2500000   0.2500000), wk =   0.0078125
        k(   54) = (   0.1250000   0.2500000   0.3750000), wk =   0.0078125
        k(   55) = (   0.1250000   0.2500000  -0.5000000), wk =   0.0078125
        k(   56) = (   0.1250000   0.2500000  -0.3750000), wk =   0.0078125
        k(   57) = (   0.1250000   0.2500000  -0.2500000), wk =   0.0078125
        k(   58) = (   0.1250000   0.2500000  -0.1250000), wk =   0.0078125
        k(   59) = (   0.1250000   0.3750000  -0.0000000), wk =   0.0078125
        k(   60) = (   0.1250000   0.3750000   0.1250000), wk =   0.0078125
        k(   61) = (   0.1250000   0.3750000   0.2500000), wk =   0.0078125
        k(   62) = (   0.1250000   0.3750000   0.3750000), wk =   0.0078125
        k(   63) = (   0.1250000   0.3750000  -0.5000000), wk =   0.0078125
        k(   64) = (   0.1250000   0.3750000  -0.3750000), wk =   0.0078125
        k(   65) = (   0.1250000   0.3750000  -0.2500000), wk =   0.0078125
        k(   66) = (   0.1250000   0.3750000  -0.1250000), wk =   0.0078125
        k(   67) = (   0.1250000  -0.5000000   0.0000000), wk =   0.0078125
        k(   68) = (   0.1250000  -0.5000000   0.1250000), wk =   0.0078125
        k(   69) = (   0.1250000  -0.5000000   0.2500000), wk =   0.0078125
        k(   70) = (   0.1250000  -0.5000000   0.3750000), wk =   0.0078125
        k(   71) = (   0.1250000  -0.5000000  -0.5000000), wk =   0.0078125
        k(   72) = (   0.1250000  -0.5000000  -0.3750000), wk =   0.0078125
        k(   73) = (   0.1250000  -0.5000000  -0.2500000), wk =   0.0078125
        k(   74) = (   0.1250000  -0.5000000  -0.1250000), wk =   0.0078125
        k(   75) = (   0.1250000  -0.3750000   0.0000000), wk =   0.0078125
        k(   76) = (   0.1250000  -0.3750000   0.1250000), wk =   0.0078125
        k(   77) = (   0.1250000  -0.3750000   0.2500000), wk =   0.0078125
        k(   78) = (   0.1250000  -0.3750000   0.3750000), wk =   0.0078125
        k(   79) = (   0.1250000  -0.3750000  -0.5000000), wk =   0.0078125
        k(   80) = (   0.1250000  -0.3750000  -0.3750000), wk =   0.0078125
        k(   81) = (   0.1250000  -0.3750000  -0.2500000), wk =   0.0078125
        k(   82) = (   0.1250000  -0.3750000  -0.1250000), wk =   0.0078125
        k(   83) = (   0.1250000  -0.2500000   0.0000000), wk =   0.0078125
        k(   84) = (   0.1250000  -0.2500000   0.1250000), wk =   0.0078125
        k(   85) = (   0.1250000  -0.2500000   0.2500000), wk =   0.0078125
        k(   86) = (   0.1250000  -0.2500000   0.3750000), wk =   0.0078125
        k(   87) = (   0.1250000  -0.2500000  -0.5000000), wk =   0.0078125
        k(   88) = (   0.1250000  -0.2500000  -0.3750000), wk =   0.0078125
        k(   89) = (   0.1250000  -0.2500000  -0.2500000), wk =   0.0078125
        k(   90) = (   0.1250000  -0.2500000  -0.1250000), wk =   0.0078125
        k(   91) = (   0.1250000  -0.1250000   0.0000000), wk =   0.0078125
        k(   92) = (   0.1250000  -0.1250000   0.1250000), wk =   0.0078125
        k(   93) = (   0.1250000  -0.1250000   0.2500000), wk =   0.0078125
        k(   94) = (   0.1250000  -0.1250000   0.3750000), wk =   0.0078125
        k(   95) = (   0.1250000  -0.1250000  -0.5000000), wk =   0.0078125
        k(   96) = (   0.1250000  -0.1250000  -0.3750000), wk =   0.0078125
        k(   97) = (   0.1250000  -0.1250000  -0.2500000), wk =   0.0078125
        k(   98) = (   0.1250000  -0.1250000  -0.1250000), wk =   0.0078125
        k(   99) = (   0.2500000   0.0000000   0.0000000), wk =   0.0078125
        k(  100) = (   0.2500000   0.0000000   0.1250000), wk =   0.0078125
        k(  101) = (   0.2500000   0.0000000   0.2500000), wk =   0.0078125
        k(  102) = (   0.2500000   0.0000000   0.3750000), wk =   0.0078125
        k(  103) = (   0.2500000  -0.0000000  -0.5000000), wk =   0.0078125
        k(  104) = (   0.2500000   0.0000000  -0.3750000), wk =   0.0078125
        k(  105) = (   0.2500000   0.0000000  -0.2500000), wk =   0.0078125
        k(  106) = (   0.2500000   0.0000000  -0.1250000), wk =   0.0078125
        k(  107) = (   0.2500000   0.1250000   0.0000000), wk =   0.0078125
        k(  108) = (   0.2500000   0.1250000   0.1250000), wk =   0.0078125
        k(  109) = (   0.2500000   0.1250000   0.2500000), wk =   0.0078125
        k(  110) = (   0.2500000   0.1250000   0.3750000), wk =   0.0078125
        k(  111) = (   0.2500000   0.1250000  -0.5000000), wk =   0.0078125
        k(  112) = (   0.2500000   0.1250000  -0.3750000), wk =   0.0078125
        k(  113) = (   0.2500000   0.1250000  -0.2500000), wk =   0.0078125
        k(  114) = (   0.2500000   0.1250000  -0.1250000), wk =   0.0078125
        k(  115) = (   0.2500000   0.2500000  -0.0000000), wk =   0.0078125
        k(  116) = (   0.2500000   0.2500000   0.1250000), wk =   0.0078125
        k(  117) = (   0.2500000   0.2500000   0.2500000), wk =   0.0078125
        k(  118) = (   0.2500000   0.2500000   0.3750000), wk =   0.0078125
        k(  119) = (   0.2500000   0.2500000  -0.5000000), wk =   0.0078125
        k(  120) = (   0.2500000   0.2500000  -0.3750000), wk =   0.0078125
        k(  121) = (   0.2500000   0.2500000  -0.2500000), wk =   0.0078125
        k(  122) = (   0.2500000   0.2500000  -0.1250000), wk =   0.0078125
        k(  123) = (   0.2500000   0.3750000  -0.0000000), wk =   0.0078125
        k(  124) = (   0.2500000   0.3750000   0.1250000), wk =   0.0078125
        k(  125) = (   0.2500000   0.3750000   0.2500000), wk =   0.0078125
        k(  126) = (   0.2500000   0.3750000   0.3750000), wk =   0.0078125
        k(  127) = (   0.2500000   0.3750000  -0.5000000), wk =   0.0078125
        k(  128) = (   0.2500000   0.3750000  -0.3750000), wk =   0.0078125
        k(  129) = (   0.2500000   0.3750000  -0.2500000), wk =   0.0078125
        k(  130) = (   0.2500000   0.3750000  -0.1250000), wk =   0.0078125
        k(  131) = (   0.2500000  -0.5000000   0.0000000), wk =   0.0078125
        k(  132) = (   0.2500000  -0.5000000   0.1250000), wk =   0.0078125
        k(  133) = (   0.2500000  -0.5000000   0.2500000), wk =   0.0078125
        k(  134) = (   0.2500000  -0.5000000   0.3750000), wk =   0.0078125
        k(  135) = (   0.2500000  -0.5000000  -0.5000000), wk =   0.0078125
        k(  136) = (   0.2500000  -0.5000000  -0.3750000), wk =   0.0078125
        k(  137) = (   0.2500000  -0.5000000  -0.2500000), wk =   0.0078125
        k(  138) = (   0.2500000  -0.5000000  -0.1250000), wk =   0.0078125
        k(  139) = (   0.2500000  -0.3750000   0.0000000), wk =   0.0078125
        k(  140) = (   0.2500000  -0.3750000   0.1250000), wk =   0.0078125
        k(  141) = (   0.2500000  -0.3750000   0.2500000), wk =   0.0078125
        k(  142) = (   0.2500000  -0.3750000   0.3750000), wk =   0.0078125
        k(  143) = (   0.2500000  -0.3750000  -0.5000000), wk =   0.0078125
        k(  144) = (   0.2500000  -0.3750000  -0.3750000), wk =   0.0078125
        k(  145) = (   0.2500000  -0.3750000  -0.2500000), wk =   0.0078125
        k(  146) = (   0.2500000  -0.3750000  -0.1250000), wk =   0.0078125
        k(  147) = (   0.2500000  -0.2500000   0.0000000), wk =   0.0078125
        k(  148) = (   0.2500000  -0.2500000   0.1250000), wk =   0.0078125
        k(  149) = (   0.2500000  -0.2500000   0.2500000), wk =   0.0078125
        k(  150) = (   0.2500000  -0.2500000   0.3750000), wk =   0.0078125
        k(  151) = (   0.2500000  -0.2500000  -0.5000000), wk =   0.0078125
        k(  152) = (   0.2500000  -0.2500000  -0.3750000), wk =   0.0078125
        k(  153) = (   0.2500000  -0.2500000  -0.2500000), wk =   0.0078125
        k(  154) = (   0.2500000  -0.2500000  -0.1250000), wk =   0.0078125
        k(  155) = (   0.2500000  -0.1250000   0.0000000), wk =   0.0078125
        k(  156) = (   0.2500000  -0.1250000   0.1250000), wk =   0.0078125
        k(  157) = (   0.2500000  -0.1250000   0.2500000), wk =   0.0078125
        k(  158) = (   0.2500000  -0.1250000   0.3750000), wk =   0.0078125
        k(  159) = (   0.2500000  -0.1250000  -0.5000000), wk =   0.0078125
        k(  160) = (   0.2500000  -0.1250000  -0.3750000), wk =   0.0078125
        k(  161) = (   0.2500000  -0.1250000  -0.2500000), wk =   0.0078125
        k(  162) = (   0.2500000  -0.1250000  -0.1250000), wk =   0.0078125
        k(  163) = (   0.3750000   0.0000000   0.0000000), wk =   0.0078125
        k(  164) = (   0.3750000   0.0000000   0.1250000), wk =   0.0078125
        k(  165) = (   0.3750000   0.0000000   0.2500000), wk =   0.0078125
        k(  166) = (   0.3750000   0.0000000   0.3750000), wk =   0.0078125
        k(  167) = (   0.3750000   0.0000000  -0.5000000), wk =   0.0078125
        k(  168) = (   0.3750000   0.0000000  -0.3750000), wk =   0.0078125
        k(  169) = (   0.3750000   0.0000000  -0.2500000), wk =   0.0078125
        k(  170) = (   0.3750000   0.0000000  -0.1250000), wk =   0.0078125
        k(  171) = (   0.3750000   0.1250000   0.0000000), wk =   0.0078125
        k(  172) = (   0.3750000   0.1250000   0.1250000), wk =   0.0078125
        k(  173) = (   0.3750000   0.1250000   0.2500000), wk =   0.0078125
        k(  174) = (   0.3750000   0.1250000   0.3750000), wk =   0.0078125
        k(  175) = (   0.3750000   0.1250000  -0.5000000), wk =   0.0078125
        k(  176) = (   0.3750000   0.1250000  -0.3750000), wk =   0.0078125
        k(  177) = (   0.3750000   0.1250000  -0.2500000), wk =   0.0078125
        k(  178) = (   0.3750000   0.1250000  -0.1250000), wk =   0.0078125
        k(  179) = (   0.3750000   0.2500000  -0.0000000), wk =   0.0078125
        k(  180) = (   0.3750000   0.2500000   0.1250000), wk =   0.0078125
        k(  181) = (   0.3750000   0.2500000   0.2500000), wk =   0.0078125
        k(  182) = (   0.3750000   0.2500000   0.3750000), wk =   0.0078125
        k(  183) = (   0.3750000   0.2500000  -0.5000000), wk =   0.0078125
        k(  184) = (   0.3750000   0.2500000  -0.3750000), wk =   0.0078125
        k(  185) = (   0.3750000   0.2500000  -0.2500000), wk =   0.0078125
        k(  186) = (   0.3750000   0.2500000  -0.1250000), wk =   0.0078125
        k(  187) = (   0.3750000   0.3750000  -0.0000000), wk =   0.0078125
        k(  188) = (   0.3750000   0.3750000   0.1250000), wk =   0.0078125
        k(  189) = (   0.3750000   0.3750000   0.2500000), wk =   0.0078125
        k(  190) = (   0.3750000   0.3750000   0.3750000), wk =   0.0078125
        k(  191) = (   0.3750000   0.3750000  -0.5000000), wk =   0.0078125
        k(  192) = (   0.3750000   0.3750000  -0.3750000), wk =   0.0078125
        k(  193) = (   0.3750000   0.3750000  -0.2500000), wk =   0.0078125
        k(  194) = (   0.3750000   0.3750000  -0.1250000), wk =   0.0078125
        k(  195) = (   0.3750000  -0.5000000   0.0000000), wk =   0.0078125
        k(  196) = (   0.3750000  -0.5000000   0.1250000), wk =   0.0078125
        k(  197) = (   0.3750000  -0.5000000   0.2500000), wk =   0.0078125
        k(  198) = (   0.3750000  -0.5000000   0.3750000), wk =   0.0078125
        k(  199) = (   0.3750000  -0.5000000  -0.5000000), wk =   0.0078125
        k(  200) = (   0.3750000  -0.5000000  -0.3750000), wk =   0.0078125
        k(  201) = (   0.3750000  -0.5000000  -0.2500000), wk =   0.0078125
        k(  202) = (   0.3750000  -0.5000000  -0.1250000), wk =   0.0078125
        k(  203) = (   0.3750000  -0.3750000   0.0000000), wk =   0.0078125
        k(  204) = (   0.3750000  -0.3750000   0.1250000), wk =   0.0078125
        k(  205) = (   0.3750000  -0.3750000   0.2500000), wk =   0.0078125
        k(  206) = (   0.3750000  -0.3750000   0.3750000), wk =   0.0078125
        k(  207) = (   0.3750000  -0.3750000  -0.5000000), wk =   0.0078125
        k(  208) = (   0.3750000  -0.3750000  -0.3750000), wk =   0.0078125
        k(  209) = (   0.3750000  -0.3750000  -0.2500000), wk =   0.0078125
        k(  210) = (   0.3750000  -0.3750000  -0.1250000), wk =   0.0078125
        k(  211) = (   0.3750000  -0.2500000   0.0000000), wk =   0.0078125
        k(  212) = (   0.3750000  -0.2500000   0.1250000), wk =   0.0078125
        k(  213) = (   0.3750000  -0.2500000   0.2500000), wk =   0.0078125
        k(  214) = (   0.3750000  -0.2500000   0.3750000), wk =   0.0078125
        k(  215) = (   0.3750000  -0.2500000  -0.5000000), wk =   0.0078125
        k(  216) = (   0.3750000  -0.2500000  -0.3750000), wk =   0.0078125
        k(  217) = (   0.3750000  -0.2500000  -0.2500000), wk =   0.0078125
        k(  218) = (   0.3750000  -0.2500000  -0.1250000), wk =   0.0078125
        k(  219) = (   0.3750000  -0.1250000   0.0000000), wk =   0.0078125
        k(  220) = (   0.3750000  -0.1250000   0.1250000), wk =   0.0078125
        k(  221) = (   0.3750000  -0.1250000   0.2500000), wk =   0.0078125
        k(  222) = (   0.3750000  -0.1250000   0.3750000), wk =   0.0078125
        k(  223) = (   0.3750000  -0.1250000  -0.5000000), wk =   0.0078125
        k(  224) = (   0.3750000  -0.1250000  -0.3750000), wk =   0.0078125
        k(  225) = (   0.3750000  -0.1250000  -0.2500000), wk =   0.0078125
        k(  226) = (   0.3750000  -0.1250000  -0.1250000), wk =   0.0078125
        k(  227) = (  -0.5000000  -0.0000000  -0.0000000), wk =   0.0039062
        k(  228) = (  -0.5000000  -0.0000000   0.1250000), wk =   0.0078125
        k(  229) = (  -0.5000000  -0.0000000   0.2500000), wk =   0.0078125
        k(  230) = (  -0.5000000  -0.0000000   0.3750000), wk =   0.0078125
        k(  231) = (  -0.5000000  -0.0000000  -0.5000000), wk =   0.0039062
        k(  232) = (  -0.5000000   0.1250000  -0.0000000), wk =   0.0078125
        k(  233) = (  -0.5000000   0.1250000   0.1250000), wk =   0.0078125
        k(  234) = (  -0.5000000   0.1250000   0.2500000), wk =   0.0078125
        k(  235) = (  -0.5000000   0.1250000   0.3750000), wk =   0.0078125
        k(  236) = (  -0.5000000   0.1250000  -0.5000000), wk =   0.0078125
        k(  237) = (  -0.5000000   0.1250000  -0.3750000), wk =   0.0078125
        k(  238) = (  -0.5000000   0.1250000  -0.2500000), wk =   0.0078125
        k(  239) = (  -0.5000000   0.1250000  -0.1250000), wk =   0.0078125
        k(  240) = (  -0.5000000   0.2500000  -0.0000000), wk =   0.0078125
        k(  241) = (  -0.5000000   0.2500000   0.1250000), wk =   0.0078125
        k(  242) = (  -0.5000000   0.2500000   0.2500000), wk =   0.0078125
        k(  243) = (  -0.5000000   0.2500000   0.3750000), wk =   0.0078125
        k(  244) = (  -0.5000000   0.2500000  -0.5000000), wk =   0.0078125
        k(  245) = (  -0.5000000   0.2500000  -0.3750000), wk =   0.0078125
        k(  246) = (  -0.5000000   0.2500000  -0.2500000), wk =   0.0078125
        k(  247) = (  -0.5000000   0.2500000  -0.1250000), wk =   0.0078125
        k(  248) = (  -0.5000000   0.3750000  -0.0000000), wk =   0.0078125
        k(  249) = (  -0.5000000   0.3750000   0.1250000), wk =   0.0078125
        k(  250) = (  -0.5000000   0.3750000   0.2500000), wk =   0.0078125
        k(  251) = (  -0.5000000   0.3750000   0.3750000), wk =   0.0078125
        k(  252) = (  -0.5000000   0.3750000  -0.5000000), wk =   0.0078125
        k(  253) = (  -0.5000000   0.3750000  -0.3750000), wk =   0.0078125
        k(  254) = (  -0.5000000   0.3750000  -0.2500000), wk =   0.0078125
        k(  255) = (  -0.5000000   0.3750000  -0.1250000), wk =   0.0078125
        k(  256) = (  -0.5000000  -0.5000000   0.0000000), wk =   0.0039062
        k(  257) = (  -0.5000000  -0.5000000   0.1250000), wk =   0.0078125
        k(  258) = (  -0.5000000  -0.5000000   0.2500000), wk =   0.0078125
        k(  259) = (  -0.5000000  -0.5000000   0.3750000), wk =   0.0078125
        k(  260) = (  -0.5000000  -0.5000000  -0.5000000), wk =   0.0039062

     Dense  grid:    75003 G-vectors     FFT dimensions: (  54,  54,  64)

     Smooth grid:    29261 G-vectors     FFT dimensions: (  40,  40,  48)

     Dynamical RAM for                 wfc:       0.06 MB

     Dynamical RAM for     wfc (w. buffer):       3.66 MB

     Dynamical RAM for           str. fact:       0.14 MB

     Dynamical RAM for           local pot:       0.00 MB

     Dynamical RAM for          nlocal pot:       0.22 MB

     Dynamical RAM for                qrad:       5.47 MB

     Dynamical RAM for          rho,v,vnew:       0.48 MB

     Dynamical RAM for               rhoin:       0.16 MB

     Dynamical RAM for            rho*nmix:       1.14 MB

     Dynamical RAM for           G-vectors:       0.28 MB

     Dynamical RAM for          h,s,v(r/c):       0.05 MB

     Dynamical RAM for          <psi|beta>:       0.02 MB

     Dynamical RAM for                 psi:       0.22 MB

     Dynamical RAM for                hpsi:       0.22 MB

     Dynamical RAM for                spsi:       0.22 MB

     Dynamical RAM for      wfcinit/wfcrot:       0.13 MB

     Dynamical RAM for           addusdens:       3.75 MB

     Dynamical RAM for          addusforce:       3.89 MB

     Dynamical RAM for         addusstress:       3.96 MB

     Estimated static dynamical RAM per process >      12.22 MB

     Estimated max dynamical RAM per process >      16.18 MB

     Estimated total dynamical RAM >       1.01 GB

     Check: negative core charge=   -0.000003

     Initial potential from superposition of free atoms

     starting charge   31.39954, renormalised to   32.00000
     Starting wfcs are   18 randomized atomic wfcs

     total cpu time spent up to now is        3.0 secs

     Self-consistent Calculation

     iteration #  1     ecut=    80.00 Ry     beta= 0.50
     Davidson diagonalization with overlap
     ethr =  1.00E-02,  avg # of iterations =  2.0

     total cpu time spent up to now is        3.7 secs

     total energy              =    -314.92535677 Ry
     Harris-Foulkes estimate   =    -315.46368460 Ry
     estimated scf accuracy    <       0.84778776 Ry

     iteration #  2     ecut=    80.00 Ry     beta= 0.50
     Davidson diagonalization with overlap
     ethr =  2.65E-03,  avg # of iterations =  2.7

     total cpu time spent up to now is        4.5 secs

     total energy              =    -315.15125996 Ry
     Harris-Foulkes estimate   =    -315.24862672 Ry
     estimated scf accuracy    <       0.22367547 Ry

     iteration #  3     ecut=    80.00 Ry     beta= 0.50
     Davidson diagonalization with overlap
     ethr =  6.99E-04,  avg # of iterations =  2.0

     total cpu time spent up to now is        5.1 secs

     total energy              =    -315.18879905 Ry
     Harris-Foulkes estimate   =    -315.19176677 Ry
     estimated scf accuracy    <       0.00910882 Ry

     iteration #  4     ecut=    80.00 Ry     beta= 0.50
     Davidson diagonalization with overlap
     ethr =  2.85E-05,  avg # of iterations =  1.9

     total cpu time spent up to now is        5.7 secs

     total energy              =    -315.18931214 Ry
     Harris-Foulkes estimate   =    -315.18936798 Ry
     estimated scf accuracy    <       0.00050206 Ry

     iteration #  5     ecut=    80.00 Ry     beta= 0.50
     Davidson diagonalization with overlap
     ethr =  1.57E-06,  avg # of iterations =  2.0

     total cpu time spent up to now is        6.4 secs

     total energy              =    -315.18937041 Ry
     Harris-Foulkes estimate   =    -315.18938412 Ry
     estimated scf accuracy    <       0.00004314 Ry

     iteration #  6     ecut=    80.00 Ry     beta= 0.50
     Davidson diagonalization with overlap
     ethr =  1.35E-07,  avg # of iterations =  2.4

     total cpu time spent up to now is        7.1 secs

     total energy              =    -315.18938171 Ry
     Harris-Foulkes estimate   =    -315.18938154 Ry
     estimated scf accuracy    <       0.00000252 Ry

     iteration #  7     ecut=    80.00 Ry     beta= 0.50
     Davidson diagonalization with overlap
     ethr =  7.87E-09,  avg # of iterations =  2.0

     total cpu time spent up to now is        7.7 secs

     End of self-consistent calculation

          k = 0.0000 0.0000 0.0000 (  3647 PWs)   bands (ev):

   -66.2426 -66.2314 -33.2576 -33.2257 -33.2257 -33.2018 -33.2018 -33.1854
   -11.0956  -9.7611   2.0054   3.9908   3.9908   4.8305   4.8306   5.6640

     occupation numbers 
     1.0000   1.0000   1.0000   1.0000   1.0000   1.0000   1.0000   1.0000
     1.0000   1.0000   1.0000   1.0000   1.0000   1.0000   1.0000   1.0000

          k =-0.0000-0.0000 0.1013 (  3653 PWs)   bands (ev):

   -66.2422 -66.2318 -33.2551 -33.2248 -33.2248 -33.2027 -33.2027 -33.1884
   -11.0451  -9.8114   2.0798   4.0204   4.0204   4.7962   4.7962   5.3584

     occupation numbers 
     1.0000   1.0000   1.0000   1.0000   1.0000   1.0000   1.0000   1.0000
     1.0000   1.0000   1.0000   1.0000   1.0000   1.0000   1.0000   1.0000

          k =-0.0000-0.0000 0.2025 (  3647 PWs)   bands (ev):

   -66.2410 -66.2330 -33.2479 -33.2222 -33.2222 -33.2053 -33.2053 -33.1968
   -10.9009  -9.9552   2.3082   4.1056   4.1056   4.6841   4.6994   4.6994

     occupation numbers 
     1.0000   1.0000   1.0000   1.0000   1.0000   1.0000   1.0000   1.0000
     1.0000   1.0000   1.0000   1.0000   1.0000   1.0000   1.0000   1.0000

          k =-0.0000-0.0000 0.3038 (  3659 PWs)   bands (ev):

   -66.2392 -66.2349 -33.2368 -33.2183 -33.2183 -33.2092 -33.2091 -33.2091
   -10.6843 -10.1717   2.6996   3.9346   4.2359   4.2359   4.5573   4.5573

     occupation numbers 
     1.0000   1.0000   1.0000   1.0000   1.0000   1.0000   1.0000   1.0000
     1.0000   1.0000   1.0000   1.0000   1.0000   1.0000   1.0000   1.0000

          k = 0.0000 0.0000-0.4050 (  3648 PWs)   bands (ev):

   -66.2370 -66.2370 -33.2232 -33.2232 -33.2137 -33.2137 -33.2137 -33.2137
   -10.4287 -10.4274   3.2506   3.2515   4.3935   4.3935   4.3948   4.3948

     occupation numbers 
     1.0000   1.0000   1.0000   1.0000   1.0000   1.0000   1.0000   1.0000
     1.0000   1.0000   1.0000   1.0000   1.0000   1.0000   1.0000   1.0000

          k =-0.0000 0.1443-0.0000 (  3630 PWs)   bands (ev):

   -66.2421 -66.2317 -33.2550 -33.2278 -33.2270 -33.2050 -33.2017 -33.1875
   -11.0154  -9.7665   2.1302   3.7246   3.8749   4.4534   4.8928   5.5453

     occupation numbers 
     1.0000   1.0000   1.0000   1.0000   1.0000   1.0000   1.0000   1.0000
     1.0000   1.0000   1.0000   1.0000   1.0000   1.0000   1.0000   1.0000

          k =-0.0000 0.1443 0.1013 (  3646 PWs)   bands (ev):

   -66.2417 -66.2321 -33.2535 -33.2261 -33.2261 -33.2071 -33.2026 -33.1891
   -10.9671  -9.8121   2.1698   3.7793   3.9097   4.3358   4.8496   5.4184

     occupation numbers 
     1.0000   1.0000   1.0000   1.0000   1.0000   1.0000   1.0000   1.0000
     1.0000   1.0000   1.0000   1.0000   1.0000   1.0000   1.0000   1.0000

          k =-0.0000 0.1443 0.2025 (  3661 PWs)   bands (ev):

   -66.2406 -66.2332 -33.2490 -33.2233 -33.2214 -33.2132 -33.2053 -33.1933
   -10.8295  -9.9436   2.3051   3.8344   4.0103   4.0967   4.7288   5.1418

     occupation numbers 
     1.0000   1.0000   1.0000   1.0000   1.0000   1.0000   1.0000   1.0000
     1.0000   1.0000   1.0000   1.0000   1.0000   1.0000   1.0000   1.0000

          k =-0.0000 0.1443 0.3038 (  3652 PWs)   bands (ev):

   -66.2389 -66.2349 -33.2417 -33.2223 -33.2192 -33.2146 -33.2094 -33.1996
   -10.6239 -10.1433   2.5650   3.4344   4.1652   4.2542   4.5536   4.8363

     occupation numbers 
     1.0000   1.0000   1.0000   1.0000   1.0000   1.0000   1.0000   1.0000
     1.0000   1.0000   1.0000   1.0000   1.0000   1.0000   1.0000   1.0000

          k = 0.0000 0.1443-0.4050 (  3652 PWs)   bands (ev):

   -66.2369 -66.2369 -33.2323 -33.2323 -33.2143 -33.2142 -33.2070 -33.2070
   -10.3831 -10.3818   2.9553   2.9557   4.3546   4.3559   4.5335   4.5342

     occupation numbers 
     1.0000   1.0000   1.0000   1.0000   1.0000   1.0000   1.0000   1.0000
     1.0000   1.0000   1.0000   1.0000   1.0000   1.0000   1.0000   1.0000

          k = 0.0000 0.1443-0.3038 (  3652 PWs)   bands (ev):

   -66.2389 -66.2349 -33.2417 -33.2223 -33.2192 -33.2146 -33.2094 -33.1996
   -10.6239 -10.1433   2.5650   3.4344   4.1652   4.2542   4.5536   4.8363

     occupation numbers 
     1.0000   1.0000   1.0000   1.0000   1.0000   1.0000   1.0000   1.0000
     1.0000   1.0000   1.0000   1.0000   1.0000   1.0000   1.0000   1.0000

          k = 0.0000 0.1443-0.2025 (  3661 PWs)   bands (ev):

   -66.2406 -66.2332 -33.2490 -33.2233 -33.2214 -33.2132 -33.2053 -33.1933
   -10.8295  -9.9436   2.3051   3.8344   4.0103   4.0967   4.7288   5.1418

     occupation numbers 
     1.0000   1.0000   1.0000   1.0000   1.0000   1.0000   1.0000   1.0000
     1.0000   1.0000   1.0000   1.0000   1.0000   1.0000   1.0000   1.0000

          k = 0.0000 0.1443-0.1013 (  3646 PWs)   bands (ev):

   -66.2417 -66.2321 -33.2535 -33.2261 -33.2261 -33.2071 -33.2026 -33.1891
   -10.9671  -9.8121   2.1698   3.7793   3.9097   4.3358   4.8496   5.4184

     occupation numbers 
     1.0000   1.0000   1.0000   1.0000   1.0000   1.0000   1.0000   1.0000
     1.0000   1.0000   1.0000   1.0000   1.0000   1.0000   1.0000   1.0000

          k =-0.0000 0.2887-0.0000 (  3646 PWs)   bands (ev):

   -66.2408 -66.2324 -33.2479 -33.2327 -33.2301 -33.2126 -33.2015 -33.1937
   -10.8014  -9.7974   2.4812   2.9999   3.6500   3.9800   4.9898   5.2039

     occupation numbers 
     1.0000   1.0000   1.0000   1.0000   1.0000   1.0000   1.0000   1.0000
     1.0000   1.0000   1.0000   1.0000   1.0000   1.0000   1.0000   1.0000

          k =-0.0000 0.2887 0.1013 (  3659 PWs)   bands (ev):

   -66.2405 -66.2328 -33.2501 -33.2290 -33.2281 -33.2167 -33.2025 -33.1925
   -10.7597  -9.8305   2.3541   3.1413   3.6935   3.8794   4.9296   5.2315

     occupation numbers 
     1.0000   1.0000   1.0000   1.0000   1.0000   1.0000   1.0000   1.0000
     1.0000   1.0000   1.0000   1.0000   1.0000   1.0000   1.0000   1.0000

          k =-0.0000 0.2887 0.2025 (  3647 PWs)   bands (ev):

   -66.2396 -66.2337 -33.2520 -33.2267 -33.2258 -33.2180 -33.2056 -33.1918
   -10.6418  -9.9277   2.2199   3.0871   3.8202   3.9473   4.7629   5.2074

     occupation numbers 
     1.0000   1.0000   1.0000   1.0000   1.0000   1.0000   1.0000   1.0000
     1.0000   1.0000   1.0000   1.0000   1.0000   1.0000   1.0000   1.0000

          k =-0.0000 0.2887 0.3038 (  3648 PWs)   bands (ev):

   -66.2382 -66.2350 -33.2504 -33.2365 -33.2212 -33.2102 -33.2084 -33.1942
   -10.4685 -10.0805   2.2309   2.7366   4.0176   4.3149   4.5260   5.0303

     occupation numbers 
     1.0000   1.0000   1.0000   1.0000   1.0000   1.0000   1.0000   1.0000
     1.0000   1.0000   1.0000   1.0000   1.0000   1.0000   1.0000   1.0000

          k = 0.0000 0.2887-0.4050 (  3634 PWs)   bands (ev):

   -66.2366 -66.2366 -33.2450 -33.2450 -33.2157 -33.2157 -33.2000 -33.2000
   -10.2710 -10.2696   2.4136   2.4136   4.2631   4.2643   4.7114   4.7114

     occupation numbers 
     1.0000   1.0000   1.0000   1.0000   1.0000   1.0000   1.0000   1.0000
     1.0000   1.0000   1.0000   1.0000   1.0000   1.0000   1.0000   1.0000

          k = 0.0000 0.2887-0.3038 (  3648 PWs)   bands (ev):

   -66.2382 -66.2350 -33.2504 -33.2365 -33.2212 -33.2102 -33.2084 -33.1942
   -10.4685 -10.0805   2.2309   2.7366   4.0176   4.3149   4.5260   5.0303

     occupation numbers 
     1.0000   1.0000   1.0000   1.0000   1.0000   1.0000   1.0000   1.0000
     1.0000   1.0000   1.0000   1.0000   1.0000   1.0000   1.0000   1.0000

          k = 0.0000 0.2887-0.2025 (  3647 PWs)   bands (ev):

   -66.2396 -66.2337 -33.2520 -33.2267 -33.2258 -33.2180 -33.2056 -33.1918
   -10.6418  -9.9277   2.2199   3.0871   3.8202   3.9473   4.7629   5.2074

     occupation numbers 
     1.0000   1.0000   1.0000   1.0000   1.0000   1.0000   1.0000   1.0000
     1.0000   1.0000   1.0000   1.0000   1.0000   1.0000   1.0000   1.0000

          k =-0.0000 0.2887-0.1013 (  3659 PWs)   bands (ev):

   -66.2405 -66.2328 -33.2501 -33.2290 -33.2281 -33.2167 -33.2025 -33.1925
   -10.7597  -9.8305   2.3541   3.1413   3.6935   3.8794   4.9296   5.2315

     occupation numbers 
     1.0000   1.0000   1.0000   1.0000   1.0000   1.0000   1.0000   1.0000
     1.0000   1.0000   1.0000   1.0000   1.0000   1.0000   1.0000   1.0000

          k =-0.0000 0.4330-0.0000 (  3650 PWs)   bands (ev):

   -66.2391 -66.2336 -33.2404 -33.2356 -33.2329 -33.2202 -33.2023 -33.2014
   -10.5332  -9.8788   2.3261   2.9852   3.4660   3.6897   4.7200   5.0482

     occupation numbers 
     1.0000   1.0000   1.0000   1.0000   1.0000   1.0000   1.0000   1.0000
     1.0000   1.0000   1.0000   1.0000   1.0000   1.0000   1.0000   1.0000

          k =-0.0000 0.4330 0.1013 (  3643 PWs)   bands (ev):

   -66.2389 -66.2338 -33.2484 -33.2317 -33.2282 -33.2240 -33.2026 -33.1983
   -10.5016  -9.8955   2.1582   3.0424   3.5157   3.6108   4.8909   4.9740

     occupation numbers 
     1.0000   1.0000   1.0000   1.0000   1.0000   1.0000   1.0000   1.0000
     1.0000   1.0000   1.0000   1.0000   1.0000   1.0000   1.0000   1.0000

          k =-0.0000 0.4330 0.2025 (  3642 PWs)   bands (ev):

   -66.2383 -66.2344 -33.2551 -33.2378 -33.2283 -33.2134 -33.2060 -33.1936
   -10.4139  -9.9471   1.9396   2.7036   3.6608   3.9191   4.7706   5.0853

     occupation numbers 
     1.0000   1.0000   1.0000   1.0000   1.0000   1.0000   1.0000   1.0000
     1.0000   1.0000   1.0000   1.0000   1.0000   1.0000   1.0000   1.0000

          k =-0.0000 0.4330 0.3038 (  3640 PWs)   bands (ev):

   -66.2374 -66.2353 -33.2575 -33.2479 -33.2232 -33.2111 -33.2031 -33.1925
   -10.2895 -10.0354   1.8613   2.2748   3.8885   4.3829   4.4858   5.0595

     occupation numbers 
     1.0000   1.0000   1.0000   1.0000   1.0000   1.0000   1.0000   1.0000
     1.0000   1.0000   1.0000   1.0000   1.0000   1.0000   1.0000   1.0000

          k = 0.0000 0.4330-0.4050 (  3628 PWs)   bands (ev):

   -66.2364 -66.2363 -33.2549 -33.2549 -33.2172 -33.2171 -33.1958 -33.1958
   -10.1556 -10.1543   1.9742   1.9744   4.1749   4.1761   4.7982   4.7985

     occupation numbers 
     1.0000   1.0000   1.0000   1.0000   1.0000   1.0000   1.0000   1.0000
     1.0000   1.0000   1.0000   1.0000   1.0000   1.0000   1.0000   1.0000

          k = 0.0000 0.4330-0.3038 (  3640 PWs)   bands (ev):

   -66.2374 -66.2353 -33.2575 -33.2479 -33.2232 -33.2111 -33.2031 -33.1925
   -10.2895 -10.0354   1.8613   2.2748   3.8885   4.3829   4.4858   5.0595

     occupation numbers 
     1.0000   1.0000   1.0000   1.0000   1.0000   1.0000   1.0000   1.0000
     1.0000   1.0000   1.0000   1.0000   1.0000   1.0000   1.0000   1.0000

          k =-0.0000 0.4330-0.2025 (  3642 PWs)   bands (ev):

   -66.2383 -66.2344 -33.2551 -33.2378 -33.2283 -33.2134 -33.2060 -33.1936
   -10.4139  -9.9471   1.9396   2.7036   3.6608   3.9191   4.7706   5.0853

     occupation numbers 
     1.0000   1.0000   1.0000   1.0000   1.0000   1.0000   1.0000   1.0000
     1.0000   1.0000   1.0000   1.0000   1.0000   1.0000   1.0000   1.0000

          k =-0.0000 0.4330-0.1013 (  3643 PWs)   bands (ev):

   -66.2389 -66.2338 -33.2484 -33.2317 -33.2282 -33.2240 -33.2026 -33.1983
   -10.5016  -9.8955   2.1582   3.0424   3.5157   3.6108   4.8909   4.9740

     occupation numbers 
     1.0000   1.0000   1.0000   1.0000   1.0000   1.0000   1.0000   1.0000
     1.0000   1.0000   1.0000   1.0000   1.0000   1.0000   1.0000   1.0000

          k = 0.0000-0.5774 0.0000 (  3666 PWs)   bands (ev):

   -66.2381 -66.2344 -33.2410 -33.2341 -33.2312 -33.2234 -33.2076 -33.2015
   -10.3784  -9.9550   2.0750   3.3193   3.3973   3.5821   4.3969   5.0656

     occupation numbers 
     1.0000   1.0000   1.0000   1.0000   1.0000   1.0000   1.0000   1.0000
     1.0000   1.0000   1.0000   1.0000   1.0000   1.0000   1.0000   1.0000

          k = 0.0000-0.5774 0.1013 (  3636 PWs)   bands (ev):

   -66.2379 -66.2345 -33.2484 -33.2328 -33.2308 -33.2224 -33.2027 -33.2021
   -10.3540  -9.9618   1.9570   3.2009   3.4491   3.5153   4.6916   4.9862

     occupation numbers 
     1.0000   1.0000   1.0000   1.0000   1.0000   1.0000   1.0000   1.0000
     1.0000   1.0000   1.0000   1.0000   1.0000   1.0000   1.0000   1.0000

          k = 0.0000-0.5774 0.2025 (  3646 PWs)   bands (ev):

   -66.2375 -66.2349 -33.2563 -33.2424 -33.2293 -33.2106 -33.2062 -33.1955
   -10.2877  -9.9854   1.7708   2.6178   3.6005   3.9400   4.7693   5.0048

     occupation numbers 
     1.0000   1.0000   1.0000   1.0000   1.0000   1.0000   1.0000   1.0000
     1.0000   1.0000   1.0000   1.0000   1.0000   1.0000   1.0000   1.0000

          k = 0.0000-0.5774 0.3038 (  3658 PWs)   bands (ev):

   -66.2369 -66.2355 -33.2600 -33.2524 -33.2240 -33.2115 -33.2007 -33.1926
   -10.1975 -10.0327   1.6965   2.1259   3.8386   4.4124   4.4672   5.0494

     occupation numbers 
     1.0000   1.0000   1.0000   1.0000   1.0000   1.0000   1.0000   1.0000
     1.0000   1.0000   1.0000   1.0000   1.0000   1.0000   1.0000   1.0000

          k = 0.0000-0.5774-0.4050 (  3656 PWs)   bands (ev):

   -66.2363 -66.2362 -33.2586 -33.2586 -33.2178 -33.2177 -33.1944 -33.1944
   -10.1069 -10.1055   1.8091   1.8093   4.1392   4.1405   4.8197   4.8201

     occupation numbers 
     1.0000   1.0000   1.0000   1.0000   1.0000   1.0000   1.0000   1.0000
     1.0000   1.0000   1.0000   1.0000   1.0000   1.0000   1.0000   1.0000

          k = 0.1250 0.0722-0.0000 (  3630 PWs)   bands (ev):

   -66.2421 -66.2317 -33.2550 -33.2278 -33.2270 -33.2050 -33.2017 -33.1875
   -11.0154  -9.7665   2.1302   3.7246   3.8749   4.4534   4.8927   5.5453

     occupation numbers 
     1.0000   1.0000   1.0000   1.0000   1.0000   1.0000   1.0000   1.0000
     1.0000   1.0000   1.0000   1.0000   1.0000   1.0000   1.0000   1.0000

          k = 0.1250 0.0722 0.1013 (  3646 PWs)   bands (ev):

   -66.2417 -66.2321 -33.2535 -33.2261 -33.2261 -33.2071 -33.2026 -33.1891
   -10.9671  -9.8121   2.1698   3.7793   3.9097   4.3358   4.8496   5.4184

     occupation numbers 
     1.0000   1.0000   1.0000   1.0000   1.0000   1.0000   1.0000   1.0000
     1.0000   1.0000   1.0000   1.0000   1.0000   1.0000   1.0000   1.0000

          k = 0.1250 0.0722 0.2025 (  3661 PWs)   bands (ev):

   -66.2406 -66.2332 -33.2490 -33.2233 -33.2214 -33.2132 -33.2053 -33.1933
   -10.8295  -9.9436   2.3051   3.8344   4.0103   4.0967   4.7288   5.1418

     occupation numbers 
     1.0000   1.0000   1.0000   1.0000   1.0000   1.0000   1.0000   1.0000
     1.0000   1.0000   1.0000   1.0000   1.0000   1.0000   1.0000   1.0000

          k = 0.1250 0.0722 0.3038 (  3652 PWs)   bands (ev):

   -66.2389 -66.2349 -33.2417 -33.2223 -33.2192 -33.2146 -33.2094 -33.1996
   -10.6239 -10.1433   2.5650   3.4344   4.1652   4.2542   4.5536   4.8363

     occupation numbers 
     1.0000   1.0000   1.0000   1.0000   1.0000   1.0000   1.0000   1.0000
     1.0000   1.0000   1.0000   1.0000   1.0000   1.0000   1.0000   1.0000

          k = 0.1250 0.0722-0.4050 (  3652 PWs)   bands (ev):

   -66.2369 -66.2369 -33.2323 -33.2323 -33.2143 -33.2142 -33.2070 -33.2070
   -10.3831 -10.3818   2.9553   2.9557   4.3546   4.3559   4.5335   4.5342

     occupation numbers 
     1.0000   1.0000   1.0000   1.0000   1.0000   1.0000   1.0000   1.0000
     1.0000   1.0000   1.0000   1.0000   1.0000   1.0000   1.0000   1.0000

          k = 0.1250 0.0722-0.3038 (  3652 PWs)   bands (ev):

   -66.2389 -66.2349 -33.2417 -33.2223 -33.2192 -33.2146 -33.2094 -33.1996
   -10.6239 -10.1434   2.5650   3.4344   4.1652   4.2542   4.5536   4.8363

     occupation numbers 
     1.0000   1.0000   1.0000   1.0000   1.0000   1.0000   1.0000   1.0000
     1.0000   1.0000   1.0000   1.0000   1.0000   1.0000   1.0000   1.0000

          k = 0.1250 0.0722-0.2025 (  3661 PWs)   bands (ev):

   -66.2406 -66.2332 -33.2490 -33.2233 -33.2214 -33.2132 -33.2053 -33.1933
   -10.8295  -9.9436   2.3051   3.8344   4.0103   4.0967   4.7288   5.1418

     occupation numbers 
     1.0000   1.0000   1.0000   1.0000   1.0000   1.0000   1.0000   1.0000
     1.0000   1.0000   1.0000   1.0000   1.0000   1.0000   1.0000   1.0000

          k = 0.1250 0.0722-0.1013 (  3646 PWs)   bands (ev):

   -66.2417 -66.2321 -33.2535 -33.2261 -33.2261 -33.2071 -33.2026 -33.1891
   -10.9671  -9.8121   2.1698   3.7793   3.9097   4.3358   4.8496   5.4184

     occupation numbers 
     1.0000   1.0000   1.0000   1.0000   1.0000   1.0000   1.0000   1.0000
     1.0000   1.0000   1.0000   1.0000   1.0000   1.0000   1.0000   1.0000

          k = 0.1250 0.2165-0.0000 (  3655 PWs)   bands (ev):

   -66.2412 -66.2322 -33.2501 -33.2305 -33.2300 -33.2101 -33.2018 -33.1917
   -10.8680  -9.7848   2.3692   3.3260   3.4987   4.2305   4.9094   5.3152

     occupation numbers 
     1.0000   1.0000   1.0000   1.0000   1.0000   1.0000   1.0000   1.0000
     1.0000   1.0000   1.0000   1.0000   1.0000   1.0000   1.0000   1.0000

          k = 0.1250 0.2165 0.1013 (  3652 PWs)   bands (ev):

   -66.2409 -66.2325 -33.2509 -33.2290 -33.2270 -33.2138 -33.2028 -33.1912
   -10.8241  -9.8219   2.3244   3.3215   3.6381   4.1082   4.8510   5.3140

     occupation numbers 
     1.0000   1.0000   1.0000   1.0000   1.0000   1.0000   1.0000   1.0000
     1.0000   1.0000   1.0000   1.0000   1.0000   1.0000   1.0000   1.0000

          k = 0.1250 0.2165 0.2025 (  3655 PWs)   bands (ev):

   -66.2399 -66.2335 -33.2509 -33.2266 -33.2217 -33.2190 -33.2058 -33.1917
   -10.6997  -9.9299   2.2823   3.2140   3.9479   3.9630   4.6895   5.2414

     occupation numbers 
     1.0000   1.0000   1.0000   1.0000   1.0000   1.0000   1.0000   1.0000
     1.0000   1.0000   1.0000   1.0000   1.0000   1.0000   1.0000   1.0000

          k = 0.1250 0.2165 0.3038 (  3651 PWs)   bands (ev):

   -66.2384 -66.2350 -33.2479 -33.2328 -33.2208 -33.2104 -33.2097 -33.1951
   -10.5159 -10.0978   2.3548   2.9062   4.0104   4.3504   4.4609   5.0397

     occupation numbers 
     1.0000   1.0000   1.0000   1.0000   1.0000   1.0000   1.0000   1.0000
     1.0000   1.0000   1.0000   1.0000   1.0000   1.0000   1.0000   1.0000

          k = 0.1250 0.2165-0.4050 (  3640 PWs)   bands (ev):

   -66.2367 -66.2367 -33.2416 -33.2416 -33.2157 -33.2156 -33.2014 -33.2014
   -10.3042 -10.3029   2.5753   2.5754   4.2139   4.2151   4.7271   4.7274

     occupation numbers 
     1.0000   1.0000   1.0000   1.0000   1.0000   1.0000   1.0000   1.0000
     1.0000   1.0000   1.0000   1.0000   1.0000   1.0000   1.0000   1.0000

          k = 0.1250 0.2165-0.3038 (  3651 PWs)   bands (ev):

   -66.2384 -66.2350 -33.2479 -33.2328 -33.2208 -33.2104 -33.2097 -33.1951
   -10.5159 -10.0978   2.3548   2.9062   4.0104   4.3504   4.4609   5.0397

     occupation numbers 
     1.0000   1.0000   1.0000   1.0000   1.0000   1.0000   1.0000   1.0000
     1.0000   1.0000   1.0000   1.0000   1.0000   1.0000   1.0000   1.0000

          k = 0.1250 0.2165-0.2025 (  3655 PWs)   bands (ev):

   -66.2399 -66.2335 -33.2509 -33.2266 -33.2217 -33.2190 -33.2058 -33.1917
   -10.6997  -9.9299   2.2823   3.2140   3.9479   3.9630   4.6895   5.2414

     occupation numbers 
     1.0000   1.0000   1.0000   1.0000   1.0000   1.0000   1.0000   1.0000
     1.0000   1.0000   1.0000   1.0000   1.0000   1.0000   1.0000   1.0000

          k = 0.1250 0.2165-0.1013 (  3652 PWs)   bands (ev):

   -66.2409 -66.2325 -33.2509 -33.2290 -33.2270 -33.2138 -33.2028 -33.1912
   -10.8241  -9.8219   2.3244   3.3215   3.6381   4.1082   4.8510   5.3140

     occupation numbers 
     1.0000   1.0000   1.0000   1.0000   1.0000   1.0000   1.0000   1.0000
     1.0000   1.0000   1.0000   1.0000   1.0000   1.0000   1.0000   1.0000

          k = 0.1250 0.3608-0.0000 (  3657 PWs)   bands (ev):

   -66.2397 -66.2332 -33.2419 -33.2353 -33.2326 -33.2173 -33.2021 -33.1993
   -10.6229  -9.8443   2.6003   2.8045   3.3193   3.9553   4.8983   4.9215

     occupation numbers 
     1.0000   1.0000   1.0000   1.0000   1.0000   1.0000   1.0000   1.0000
     1.0000   1.0000   1.0000   1.0000   1.0000   1.0000   1.0000   1.0000

          k = 0.1250 0.3608 0.1013 (  3652 PWs)   bands (ev):

   -66.2394 -66.2334 -33.2479 -33.2335 -33.2257 -33.2225 -33.2033 -33.1962
   -10.5876  -9.8666   2.4113   2.7920   3.5865   3.7868   4.8335   5.0363

     occupation numbers 
     1.0000   1.0000   1.0000   1.0000   1.0000   1.0000   1.0000   1.0000
     1.0000   1.0000   1.0000   1.0000   1.0000   1.0000   1.0000   1.0000

          k = 0.1250 0.3608 0.2025 (  3649 PWs)   bands (ev):

   -66.2387 -66.2341 -33.2535 -33.2351 -33.2280 -33.2142 -33.2067 -33.1926
   -10.4889  -9.9341   2.1715   2.6734   3.6130   4.0616   4.6119   5.1834

     occupation numbers 
     1.0000   1.0000   1.0000   1.0000   1.0000   1.0000   1.0000   1.0000
     1.0000   1.0000   1.0000   1.0000   1.0000   1.0000   1.0000   1.0000

          k = 0.1250 0.3608 0.3038 (  3637 PWs)   bands (ev):

   -66.2377 -66.2352 -33.2548 -33.2443 -33.2237 -33.2118 -33.2039 -33.1924
   -10.3469 -10.0449   2.0769   2.4038   3.7111   4.2997   4.5349   5.1513

     occupation numbers 
     1.0000   1.0000   1.0000   1.0000   1.0000   1.0000   1.0000   1.0000
     1.0000   1.0000   1.0000   1.0000   1.0000   1.0000   1.0000   1.0000

          k = 0.1250 0.3608-0.4050 (  3634 PWs)   bands (ev):

   -66.2364 -66.2364 -33.2516 -33.2516 -33.2178 -33.2177 -33.1964 -33.1963
   -10.1901 -10.1888   2.1644   2.1646   3.9763   3.9773   4.9182   4.9182

     occupation numbers 
     1.0000   1.0000   1.0000   1.0000   1.0000   1.0000   1.0000   1.0000
     1.0000   1.0000   1.0000   1.0000   1.0000   1.0000   1.0000   1.0000

          k = 0.1250 0.3608-0.3038 (  3637 PWs)   bands (ev):

   -66.2377 -66.2352 -33.2548 -33.2443 -33.2237 -33.2118 -33.2039 -33.1924
   -10.3469 -10.0449   2.0769   2.4038   3.7111   4.2997   4.5349   5.1513

     occupation numbers 
     1.0000   1.0000   1.0000   1.0000   1.0000   1.0000   1.0000   1.0000
     1.0000   1.0000   1.0000   1.0000   1.0000   1.0000   1.0000   1.0000

          k = 0.1250 0.3608-0.2025 (  3649 PWs)   bands (ev):

   -66.2387 -66.2341 -33.2535 -33.2351 -33.2280 -33.2142 -33.2067 -33.1926
   -10.4889  -9.9341   2.1715   2.6734   3.6130   4.0616   4.6119   5.1834

     occupation numbers 
     1.0000   1.0000   1.0000   1.0000   1.0000   1.0000   1.0000   1.0000
     1.0000   1.0000   1.0000   1.0000   1.0000   1.0000   1.0000   1.0000

          k = 0.1250 0.3608-0.1013 (  3652 PWs)   bands (ev):

   -66.2394 -66.2334 -33.2479 -33.2335 -33.2257 -33.2225 -33.2033 -33.1962
   -10.5876  -9.8666   2.4113   2.7920   3.5865   3.7868   4.8335   5.0363

     occupation numbers 
     1.0000   1.0000   1.0000   1.0000   1.0000   1.0000   1.0000   1.0000
     1.0000   1.0000   1.0000   1.0000   1.0000   1.0000   1.0000   1.0000

          k = 0.1250 0.5052-0.0000 (  3646 PWs)   bands (ev):

   -66.2381 -66.2344 -33.2404 -33.2346 -33.2306 -33.2232 -33.2076 -33.2024
   -10.3848  -9.9488   2.1494   3.2561   3.3606   3.6537   4.4333   4.9289

     occupation numbers 
     1.0000   1.0000   1.0000   1.0000   1.0000   1.0000   1.0000   1.0000
     1.0000   1.0000   1.0000   1.0000   1.0000   1.0000   1.0000   1.0000

          k = 0.1250 0.5052 0.1013 (  3644 PWs)   bands (ev):

   -66.2379 -66.2345 -33.2469 -33.2354 -33.2303 -33.2209 -33.2038 -33.2020
   -10.3601  -9.9562   2.0754   3.0071   3.3767   3.7391   4.6875   4.8549

     occupation numbers 
     1.0000   1.0000   1.0000   1.0000   1.0000   1.0000   1.0000   1.0000
     1.0000   1.0000   1.0000   1.0000   1.0000   1.0000   1.0000   1.0000

          k = 0.1250 0.5052 0.2025 (  3640 PWs)   bands (ev):

   -66.2375 -66.2349 -33.2549 -33.2423 -33.2312 -33.2092 -33.2074 -33.1953
   -10.2927  -9.9814   1.9208   2.6208   3.2683   4.2201   4.5489   5.0583

     occupation numbers 
     1.0000   1.0000   1.0000   1.0000   1.0000   1.0000   1.0000   1.0000
     1.0000   1.0000   1.0000   1.0000   1.0000   1.0000   1.0000   1.0000

          k = 0.1250 0.5052 0.3038 (  3638 PWs)   bands (ev):

   -66.2369 -66.2355 -33.2588 -33.2519 -33.2258 -33.2129 -33.1997 -33.1922
   -10.2006 -10.0310   1.8365   2.1962   3.4716   4.1879   4.6741   5.1609

     occupation numbers 
     1.0000   1.0000   1.0000   1.0000   1.0000   1.0000   1.0000   1.0000
     1.0000   1.0000   1.0000   1.0000   1.0000   1.0000   1.0000   1.0000

          k = 0.1250 0.5052-0.4050 (  3634 PWs)   bands (ev):

   -66.2363 -66.2362 -33.2578 -33.2577 -33.2194 -33.2193 -33.1937 -33.1937
   -10.1076 -10.1063   1.9203   1.9205   3.8043   3.8053   5.0144   5.0145

     occupation numbers 
     1.0000   1.0000   1.0000   1.0000   1.0000   1.0000   1.0000   1.0000
     1.0000   1.0000   1.0000   1.0000   1.0000   1.0000   1.0000   1.0000

          k = 0.1250 0.5052-0.3038 (  3638 PWs)   bands (ev):

   -66.2369 -66.2355 -33.2588 -33.2519 -33.2258 -33.2129 -33.1997 -33.1922
   -10.2006 -10.0310   1.8365   2.1962   3.4716   4.1879   4.6741   5.1609

     occupation numbers 
     1.0000   1.0000   1.0000   1.0000   1.0000   1.0000   1.0000   1.0000
     1.0000   1.0000   1.0000   1.0000   1.0000   1.0000   1.0000   1.0000

          k = 0.1250 0.5052-0.2025 (  3640 PWs)   bands (ev):

   -66.2375 -66.2349 -33.2549 -33.2423 -33.2312 -33.2092 -33.2074 -33.1953
   -10.2927  -9.9814   1.9208   2.6208   3.2683   4.2201   4.5489   5.0583

     occupation numbers 
     1.0000   1.0000   1.0000   1.0000   1.0000   1.0000   1.0000   1.0000
     1.0000   1.0000   1.0000   1.0000   1.0000   1.0000   1.0000   1.0000

          k = 0.1250 0.5052-0.1013 (  3644 PWs)   bands (ev):

   -66.2379 -66.2345 -33.2469 -33.2354 -33.2303 -33.2209 -33.2038 -33.2020
   -10.3601  -9.9562   2.0754   3.0072   3.3767   3.7391   4.6875   4.8549

     occupation numbers 
     1.0000   1.0000   1.0000   1.0000   1.0000   1.0000   1.0000   1.0000
     1.0000   1.0000   1.0000   1.0000   1.0000   1.0000   1.0000   1.0000

          k = 0.1250-0.5052 0.0000 (  3646 PWs)   bands (ev):

   -66.2381 -66.2344 -33.2404 -33.2346 -33.2306 -33.2232 -33.2076 -33.2024
   -10.3848  -9.9488   2.1494   3.2561   3.3606   3.6537   4.4333   4.9289

     occupation numbers 
     1.0000   1.0000   1.0000   1.0000   1.0000   1.0000   1.0000   1.0000
     1.0000   1.0000   1.0000   1.0000   1.0000   1.0000   1.0000   1.0000

          k = 0.1250-0.5052 0.1013 (  3644 PWs)   bands (ev):

   -66.2379 -66.2345 -33.2469 -33.2354 -33.2303 -33.2209 -33.2038 -33.2020
   -10.3601  -9.9562   2.0754   3.0072   3.3767   3.7391   4.6875   4.8549

     occupation numbers 
     1.0000   1.0000   1.0000   1.0000   1.0000   1.0000   1.0000   1.0000
     1.0000   1.0000   1.0000   1.0000   1.0000   1.0000   1.0000   1.0000

          k = 0.1250-0.5052 0.2025 (  3640 PWs)   bands (ev):

   -66.2375 -66.2349 -33.2549 -33.2423 -33.2312 -33.2092 -33.2074 -33.1953
   -10.2927  -9.9814   1.9208   2.6208   3.2683   4.2201   4.5489   5.0583

     occupation numbers 
     1.0000   1.0000   1.0000   1.0000   1.0000   1.0000   1.0000   1.0000
     1.0000   1.0000   1.0000   1.0000   1.0000   1.0000   1.0000   1.0000

          k = 0.1250-0.5052 0.3038 (  3638 PWs)   bands (ev):

   -66.2369 -66.2355 -33.2588 -33.2519 -33.2258 -33.2129 -33.1997 -33.1922
   -10.2006 -10.0310   1.8365   2.1962   3.4716   4.1879   4.6741   5.1609

     occupation numbers 
     1.0000   1.0000   1.0000   1.0000   1.0000   1.0000   1.0000   1.0000
     1.0000   1.0000   1.0000   1.0000   1.0000   1.0000   1.0000   1.0000

          k = 0.1250-0.5052-0.4050 (  3634 PWs)   bands (ev):

   -66.2363 -66.2362 -33.2578 -33.2577 -33.2194 -33.2193 -33.1937 -33.1937
   -10.1076 -10.1063   1.9203   1.9205   3.8043   3.8053   5.0144   5.0145

     occupation numbers 
     1.0000   1.0000   1.0000   1.0000   1.0000   1.0000   1.0000   1.0000
     1.0000   1.0000   1.0000   1.0000   1.0000   1.0000   1.0000   1.0000

          k = 0.1250-0.5052-0.3038 (  3638 PWs)   bands (ev):

   -66.2369 -66.2355 -33.2588 -33.2519 -33.2258 -33.2129 -33.1997 -33.1922
   -10.2006 -10.0310   1.8365   2.1962   3.4716   4.1879   4.6741   5.1609

     occupation numbers 
     1.0000   1.0000   1.0000   1.0000   1.0000   1.0000   1.0000   1.0000
     1.0000   1.0000   1.0000   1.0000   1.0000   1.0000   1.0000   1.0000

          k = 0.1250-0.5052-0.2025 (  3640 PWs)   bands (ev):

   -66.2375 -66.2349 -33.2549 -33.2423 -33.2312 -33.2092 -33.2074 -33.1953
   -10.2927  -9.9814   1.9208   2.6208   3.2683   4.2201   4.5489   5.0583

     occupation numbers 
     1.0000   1.0000   1.0000   1.0000   1.0000   1.0000   1.0000   1.0000
     1.0000   1.0000   1.0000   1.0000   1.0000   1.0000   1.0000   1.0000

          k = 0.1250-0.5052-0.1013 (  3644 PWs)   bands (ev):

   -66.2379 -66.2345 -33.2469 -33.2354 -33.2303 -33.2209 -33.2038 -33.2020
   -10.3601  -9.9562   2.0754   3.0071   3.3767   3.7391   4.6875   4.8549

     occupation numbers 
     1.0000   1.0000   1.0000   1.0000   1.0000   1.0000   1.0000   1.0000
     1.0000   1.0000   1.0000   1.0000   1.0000   1.0000   1.0000   1.0000

          k = 0.1250-0.3608 0.0000 (  3657 PWs)   bands (ev):

   -66.2397 -66.2332 -33.2419 -33.2353 -33.2326 -33.2173 -33.2021 -33.1993
   -10.6229  -9.8443   2.6003   2.8045   3.3193   3.9553   4.8983   4.9215

     occupation numbers 
     1.0000   1.0000   1.0000   1.0000   1.0000   1.0000   1.0000   1.0000
     1.0000   1.0000   1.0000   1.0000   1.0000   1.0000   1.0000   1.0000

          k = 0.1250-0.3608 0.1013 (  3652 PWs)   bands (ev):

   -66.2394 -66.2334 -33.2479 -33.2335 -33.2257 -33.2225 -33.2033 -33.1962
   -10.5876  -9.8666   2.4113   2.7920   3.5865   3.7868   4.8335   5.0363

     occupation numbers 
     1.0000   1.0000   1.0000   1.0000   1.0000   1.0000   1.0000   1.0000
     1.0000   1.0000   1.0000   1.0000   1.0000   1.0000   1.0000   1.0000

          k = 0.1250-0.3608 0.2025 (  3649 PWs)   bands (ev):

   -66.2387 -66.2341 -33.2535 -33.2351 -33.2280 -33.2142 -33.2067 -33.1926
   -10.4889  -9.9341   2.1715   2.6734   3.6130   4.0616   4.6119   5.1834

     occupation numbers 
     1.0000   1.0000   1.0000   1.0000   1.0000   1.0000   1.0000   1.0000
     1.0000   1.0000   1.0000   1.0000   1.0000   1.0000   1.0000   1.0000

          k = 0.1250-0.3608 0.3038 (  3637 PWs)   bands (ev):

   -66.2377 -66.2352 -33.2548 -33.2443 -33.2237 -33.2118 -33.2039 -33.1924
   -10.3469 -10.0449   2.0769   2.4038   3.7111   4.2997   4.5349   5.1513

     occupation numbers 
[...]
     1.0000   1.0000   1.0000   1.0000   1.0000   1.0000   1.0000   1.0000

          k =-0.5000-0.1443 0.1013 (  3644 PWs)   bands (ev):

   -66.2379 -66.2345 -33.2469 -33.2354 -33.2303 -33.2209 -33.2038 -33.2020
   -10.3601  -9.9562   2.0754   3.0071   3.3767   3.7391   4.6875   4.8549

     occupation numbers 
     1.0000   1.0000   1.0000   1.0000   1.0000   1.0000   1.0000   1.0000
     1.0000   1.0000   1.0000   1.0000   1.0000   1.0000   1.0000   1.0000

          k =-0.5000-0.1443 0.2025 (  3640 PWs)   bands (ev):

   -66.2375 -66.2349 -33.2549 -33.2423 -33.2312 -33.2092 -33.2074 -33.1953
   -10.2927  -9.9814   1.9208   2.6208   3.2683   4.2201   4.5489   5.0583

     occupation numbers 
     1.0000   1.0000   1.0000   1.0000   1.0000   1.0000   1.0000   1.0000
     1.0000   1.0000   1.0000   1.0000   1.0000   1.0000   1.0000   1.0000

          k =-0.5000-0.1443 0.3038 (  3638 PWs)   bands (ev):

   -66.2369 -66.2355 -33.2588 -33.2519 -33.2258 -33.2129 -33.1997 -33.1922
   -10.2006 -10.0310   1.8365   2.1962   3.4716   4.1879   4.6741   5.1609

     occupation numbers 
     1.0000   1.0000   1.0000   1.0000   1.0000   1.0000   1.0000   1.0000
     1.0000   1.0000   1.0000   1.0000   1.0000   1.0000   1.0000   1.0000

          k =-0.5000-0.1443-0.4050 (  3634 PWs)   bands (ev):

   -66.2363 -66.2362 -33.2578 -33.2577 -33.2194 -33.2193 -33.1937 -33.1937
   -10.1076 -10.1063   1.9203   1.9205   3.8043   3.8053   5.0144   5.0145

     occupation numbers 
     1.0000   1.0000   1.0000   1.0000   1.0000   1.0000   1.0000   1.0000
     1.0000   1.0000   1.0000   1.0000   1.0000   1.0000   1.0000   1.0000

          k =-0.5000-0.1443-0.3038 (  3638 PWs)   bands (ev):

   -66.2369 -66.2355 -33.2588 -33.2519 -33.2258 -33.2129 -33.1997 -33.1922
   -10.2006 -10.0310   1.8365   2.1962   3.4716   4.1879   4.6741   5.1609

     occupation numbers 
     1.0000   1.0000   1.0000   1.0000   1.0000   1.0000   1.0000   1.0000
     1.0000   1.0000   1.0000   1.0000   1.0000   1.0000   1.0000   1.0000

          k =-0.5000-0.1443-0.2025 (  3640 PWs)   bands (ev):

   -66.2375 -66.2349 -33.2549 -33.2423 -33.2312 -33.2092 -33.2074 -33.1953
   -10.2927  -9.9814   1.9208   2.6208   3.2683   4.2201   4.5489   5.0583

     occupation numbers 
     1.0000   1.0000   1.0000   1.0000   1.0000   1.0000   1.0000   1.0000
     1.0000   1.0000   1.0000   1.0000   1.0000   1.0000   1.0000   1.0000

          k =-0.5000-0.1443-0.1013 (  3644 PWs)   bands (ev):

   -66.2379 -66.2345 -33.2469 -33.2354 -33.2303 -33.2209 -33.2038 -33.2020
   -10.3601  -9.9562   2.0754   3.0072   3.3767   3.7391   4.6875   4.8549

     occupation numbers 
     1.0000   1.0000   1.0000   1.0000   1.0000   1.0000   1.0000   1.0000
     1.0000   1.0000   1.0000   1.0000   1.0000   1.0000   1.0000   1.0000

          k =-0.5000 0.0000 0.0000 (  3639 PWs)   bands (ev):

   -66.2381 -66.2344 -33.2395 -33.2354 -33.2300 -33.2229 -33.2076 -33.2034
   -10.3910  -9.9428   2.2401   3.1570   3.3208   3.7760   4.4697   4.7653

     occupation numbers 
     1.0000   1.0000   1.0000   1.0000   1.0000   1.0000   1.0000   1.0000
     1.0000   1.0000   1.0000   1.0000   1.0000   1.0000   1.0000   1.0000

          k =-0.5000 0.0000 0.1013 (  3631 PWs)   bands (ev):

   -66.2379 -66.2345 -33.2445 -33.2387 -33.2295 -33.2198 -33.2047 -33.2020
   -10.3659  -9.9507   2.2736   2.7095   3.4896   3.8196   4.6522   4.7383

     occupation numbers 
     1.0000   1.0000   1.0000   1.0000   1.0000   1.0000   1.0000   1.0000
     1.0000   1.0000   1.0000   1.0000   1.0000   1.0000   1.0000   1.0000

          k =-0.5000 0.0000 0.2025 (  3643 PWs)   bands (ev):

   -66.2375 -66.2349 -33.2531 -33.2427 -33.2327 -33.2086 -33.2079 -33.1951
   -10.2974  -9.9774   2.3072   2.3102   3.1658   4.3130   4.4050   5.0715

     occupation numbers 
     1.0000   1.0000   1.0000   1.0000   1.0000   1.0000   1.0000   1.0000
     1.0000   1.0000   1.0000   1.0000   1.0000   1.0000   1.0000   1.0000

          k =-0.5000-0.0000 0.3038 (  3632 PWs)   bands (ev):

   -66.2369 -66.2355 -33.2574 -33.2514 -33.2276 -33.2142 -33.1987 -33.1918
   -10.2036 -10.0292   2.0851   2.1905   3.2005   3.9325   4.8360   5.2205

     occupation numbers 
     1.0000   1.0000   1.0000   1.0000   1.0000   1.0000   1.0000   1.0000
     1.0000   1.0000   1.0000   1.0000   1.0000   1.0000   1.0000   1.0000

          k =-0.5000 0.0000-0.4050 (  3636 PWs)   bands (ev):

   -66.2363 -66.2362 -33.2568 -33.2568 -33.2210 -33.2209 -33.1930 -33.1930
   -10.1084 -10.1070   2.0583   2.0585   3.5161   3.5171   5.1355   5.1355

     occupation numbers 
     1.0000   1.0000   1.0000   1.0000   1.0000   1.0000   1.0000   1.0000
     1.0000   1.0000   1.0000   1.0000   1.0000   1.0000   1.0000   1.0000

          k =-0.5000 0.0000-0.3038 (  3632 PWs)   bands (ev):

   -66.2369 -66.2355 -33.2574 -33.2514 -33.2276 -33.2142 -33.1987 -33.1918
   -10.2036 -10.0292   2.0851   2.1905   3.2005   3.9325   4.8360   5.2205

     occupation numbers 
     1.0000   1.0000   1.0000   1.0000   1.0000   1.0000   1.0000   1.0000
     1.0000   1.0000   1.0000   1.0000   1.0000   1.0000   1.0000   1.0000

          k =-0.5000 0.0000-0.2025 (  3643 PWs)   bands (ev):

   -66.2375 -66.2349 -33.2531 -33.2427 -33.2327 -33.2086 -33.2079 -33.1951
   -10.2974  -9.9774   2.3072   2.3102   3.1658   4.3130   4.4050   5.0715

     occupation numbers 
     1.0000   1.0000   1.0000   1.0000   1.0000   1.0000   1.0000   1.0000
     1.0000   1.0000   1.0000   1.0000   1.0000   1.0000   1.0000   1.0000

          k =-0.5000 0.0000-0.1013 (  3631 PWs)   bands (ev):

   -66.2379 -66.2345 -33.2445 -33.2387 -33.2295 -33.2198 -33.2047 -33.2020
   -10.3659  -9.9507   2.2736   2.7095   3.4896   3.8196   4.6522   4.7383

     occupation numbers 
     1.0000   1.0000   1.0000   1.0000   1.0000   1.0000   1.0000   1.0000
     1.0000   1.0000   1.0000   1.0000   1.0000   1.0000   1.0000   1.0000

          k =-0.5000 0.1443 0.0000 (  3646 PWs)   bands (ev):

   -66.2381 -66.2344 -33.2404 -33.2346 -33.2306 -33.2232 -33.2076 -33.2024
   -10.3848  -9.9488   2.1494   3.2561   3.3606   3.6537   4.4333   4.9288

     occupation numbers 
     1.0000   1.0000   1.0000   1.0000   1.0000   1.0000   1.0000   1.0000
     1.0000   1.0000   1.0000   1.0000   1.0000   1.0000   1.0000   1.0000

          k =-0.5000 0.1443 0.1013 (  3644 PWs)   bands (ev):

   -66.2379 -66.2345 -33.2469 -33.2354 -33.2303 -33.2209 -33.2038 -33.2020
   -10.3601  -9.9562   2.0754   3.0071   3.3767   3.7391   4.6875   4.8549

     occupation numbers 
     1.0000   1.0000   1.0000   1.0000   1.0000   1.0000   1.0000   1.0000
     1.0000   1.0000   1.0000   1.0000   1.0000   1.0000   1.0000   1.0000

          k =-0.5000 0.1443 0.2025 (  3640 PWs)   bands (ev):

   -66.2375 -66.2349 -33.2549 -33.2423 -33.2312 -33.2092 -33.2074 -33.1953
   -10.2927  -9.9814   1.9208   2.6208   3.2683   4.2201   4.5489   5.0583

     occupation numbers 
     1.0000   1.0000   1.0000   1.0000   1.0000   1.0000   1.0000   1.0000
     1.0000   1.0000   1.0000   1.0000   1.0000   1.0000   1.0000   1.0000

          k =-0.5000 0.1443 0.3038 (  3638 PWs)   bands (ev):

   -66.2369 -66.2355 -33.2588 -33.2519 -33.2258 -33.2129 -33.1997 -33.1922
   -10.2006 -10.0310   1.8365   2.1962   3.4716   4.1879   4.6741   5.1609

     occupation numbers 
     1.0000   1.0000   1.0000   1.0000   1.0000   1.0000   1.0000   1.0000
     1.0000   1.0000   1.0000   1.0000   1.0000   1.0000   1.0000   1.0000

          k =-0.5000 0.1443-0.4050 (  3634 PWs)   bands (ev):

   -66.2363 -66.2362 -33.2578 -33.2577 -33.2194 -33.2193 -33.1937 -33.1937
   -10.1076 -10.1063   1.9203   1.9205   3.8043   3.8053   5.0144   5.0145

     occupation numbers 
     1.0000   1.0000   1.0000   1.0000   1.0000   1.0000   1.0000   1.0000
     1.0000   1.0000   1.0000   1.0000   1.0000   1.0000   1.0000   1.0000

          k =-0.5000 0.1443-0.3038 (  3638 PWs)   bands (ev):

   -66.2369 -66.2355 -33.2588 -33.2519 -33.2258 -33.2129 -33.1997 -33.1922
   -10.2006 -10.0310   1.8365   2.1962   3.4716   4.1879   4.6741   5.1609

     occupation numbers 
     1.0000   1.0000   1.0000   1.0000   1.0000   1.0000   1.0000   1.0000
     1.0000   1.0000   1.0000   1.0000   1.0000   1.0000   1.0000   1.0000

          k =-0.5000 0.1443-0.2025 (  3640 PWs)   bands (ev):

   -66.2375 -66.2349 -33.2549 -33.2423 -33.2312 -33.2092 -33.2074 -33.1953
   -10.2927  -9.9814   1.9208   2.6208   3.2683   4.2201   4.5489   5.0583

     occupation numbers 
     1.0000   1.0000   1.0000   1.0000   1.0000   1.0000   1.0000   1.0000
     1.0000   1.0000   1.0000   1.0000   1.0000   1.0000   1.0000   1.0000

          k =-0.5000 0.1443-0.1013 (  3644 PWs)   bands (ev):

   -66.2379 -66.2345 -33.2469 -33.2354 -33.2303 -33.2209 -33.2038 -33.2020
   -10.3601  -9.9562   2.0754   3.0071   3.3767   3.7391   4.6875   4.8549

     occupation numbers 
     1.0000   1.0000   1.0000   1.0000   1.0000   1.0000   1.0000   1.0000
     1.0000   1.0000   1.0000   1.0000   1.0000   1.0000   1.0000   1.0000

          k =-0.5000-0.8660 0.0000 (  3666 PWs)   bands (ev):

   -66.2381 -66.2344 -33.2410 -33.2341 -33.2312 -33.2234 -33.2076 -33.2015
   -10.3783  -9.9550   2.0750   3.3193   3.3973   3.5821   4.3968   5.0656

     occupation numbers 
     1.0000   1.0000   1.0000   1.0000   1.0000   1.0000   1.0000   1.0000
     1.0000   1.0000   1.0000   1.0000   1.0000   1.0000   1.0000   1.0000

          k =-0.5000-0.8660 0.1013 (  3636 PWs)   bands (ev):

   -66.2379 -66.2345 -33.2484 -33.2328 -33.2308 -33.2224 -33.2027 -33.2021
   -10.3540  -9.9618   1.9570   3.2009   3.4491   3.5154   4.6915   4.9862

     occupation numbers 
     1.0000   1.0000   1.0000   1.0000   1.0000   1.0000   1.0000   1.0000
     1.0000   1.0000   1.0000   1.0000   1.0000   1.0000   1.0000   1.0000

          k =-0.5000-0.8660 0.2025 (  3646 PWs)   bands (ev):

   -66.2375 -66.2349 -33.2563 -33.2424 -33.2293 -33.2106 -33.2062 -33.1955
   -10.2877  -9.9854   1.7708   2.6178   3.6005   3.9400   4.7693   5.0048

     occupation numbers 
     1.0000   1.0000   1.0000   1.0000   1.0000   1.0000   1.0000   1.0000
     1.0000   1.0000   1.0000   1.0000   1.0000   1.0000   1.0000   1.0000

          k =-0.5000-0.8660 0.3038 (  3658 PWs)   bands (ev):

   -66.2369 -66.2355 -33.2600 -33.2524 -33.2240 -33.2115 -33.2007 -33.1926
   -10.1975 -10.0327   1.6965   2.1259   3.8386   4.4125   4.4672   5.0494

     occupation numbers 
     1.0000   1.0000   1.0000   1.0000   1.0000   1.0000   1.0000   1.0000
     1.0000   1.0000   1.0000   1.0000   1.0000   1.0000   1.0000   1.0000

          k =-0.5000-0.8660-0.4050 (  3656 PWs)   bands (ev):

   -66.2363 -66.2362 -33.2586 -33.2586 -33.2178 -33.2177 -33.1944 -33.1944
   -10.1069 -10.1055   1.8091   1.8093   4.1392   4.1405   4.8197   4.8201

     occupation numbers 
     1.0000   1.0000   1.0000   1.0000   1.0000   1.0000   1.0000   1.0000
     1.0000   1.0000   1.0000   1.0000   1.0000   1.0000   1.0000   1.0000

     highest occupied level (ev):     5.6640

!    total energy              =    -315.18938212 Ry
     Harris-Foulkes estimate   =    -315.18938205 Ry
     estimated scf accuracy    <       0.00000021 Ry

     The total energy is the sum of the following terms:

     one-electron contribution =    -207.47214187 Ry
     hartree contribution      =     110.66601620 Ry
     xc contribution           =     -48.09812284 Ry
     ewald contribution        =    -170.28513360 Ry

     convergence has been achieved in   7 iterations

     Forces acting on atoms (cartesian axes, Ry/au):

     atom    1 type  2   force =    -0.00000073   -0.00000014    0.01727491
     atom    2 type  2   force =    -0.00000009    0.00000100    0.01727534
     atom    3 type  1   force =    -0.00000014    0.00000019   -0.01729048
     atom    4 type  1   force =     0.00000096   -0.00000104   -0.01725977
     The non-local contrib.  to forces
     atom    1 type  2   force =    -0.00000038   -0.00000239   -0.03108367
     atom    2 type  2   force =    -0.00000022    0.00000338   -0.03106485
     atom    3 type  1   force =     0.00000042   -0.00000291   -0.12604859
     atom    4 type  1   force =     0.00000098   -0.00000085   -0.12604940
     The ionic contribution  to forces
     atom    1 type  2   force =    -0.00000529    0.00002215    0.83407770
     atom    2 type  2   force =    -0.00000252    0.00000112    0.83407653
     atom    3 type  1   force =     0.00000319   -0.00001641   -0.83407627
     atom    4 type  1   force =     0.00000462   -0.00000685   -0.83407795
     The local contribution  to forces
     atom    1 type  2   force =     0.00000595   -0.00001888   -0.78561335
     atom    2 type  2   force =     0.00000209   -0.00000389   -0.78563542
     atom    3 type  1   force =    -0.00000283    0.00001960    0.94294617
     atom    4 type  1   force =    -0.00000545    0.00000633    0.94288212
     The core correction contribution to forces
     atom    1 type  2   force =     0.00000001    0.00000001   -0.00019960
     atom    2 type  2   force =     0.00000000   -0.00000003   -0.00019983
     atom    3 type  1   force =     0.00000000    0.00000000    0.00000000
     atom    4 type  1   force =     0.00000000    0.00000000    0.00000000
     The Hubbard contrib.    to forces
     atom    1 type  2   force =     0.00000000    0.00000000    0.00000000
     atom    2 type  2   force =     0.00000000    0.00000000    0.00000000
     atom    3 type  1   force =     0.00000000    0.00000000    0.00000000
     atom    4 type  1   force =     0.00000000    0.00000000    0.00000000
     The SCF correction term to forces
     atom    1 type  2   force =     0.00000000    0.00000000    0.00000000
     atom    2 type  2   force =     0.00000000    0.00000000    0.00000000
     atom    3 type  1   force =     0.00000000    0.00000000    0.00000000
     atom    4 type  1   force =     0.00000000    0.00000000    0.00000000

     Total force =     0.000000     Total SCF correction =     0.000000


     Computing stress (Cartesian axis) and pressure

          total   stress  (Ry/bohr**3)                   (kbar)     P=   -0.62
  -0.00000303  -0.00000000  -0.00000001         -0.45     -0.00     -0.00
  -0.00000000  -0.00000303  -0.00000001         -0.00     -0.45     -0.00
  -0.00000001  -0.00000001  -0.00000651         -0.00     -0.00     -0.96

     kinetic stress (kbar)  20170.69     -0.00     -0.00
                               -0.00  20170.69     -0.00
                               -0.00     -0.00  20208.04

     local   stress (kbar)  -3611.27     -0.02     -0.01
                               -0.02  -3611.32      0.01
                               -0.01      0.01 -18486.88

     nonloc. stress (kbar)   5515.55      0.00      0.00
                                0.00   5515.55      0.00
                                0.00      0.00   5504.52

     hartree stress (kbar)  15840.22      0.01      0.00
                                0.01  15840.24     -0.00
                                0.00     -0.00  22304.99

     exc-cor stress (kbar)  -7167.99      0.00      0.00
                                0.00  -7167.99      0.00
                                0.00      0.00  -7165.90

     corecor stress (kbar)   -263.92     -0.00      0.00
                               -0.00   -263.92      0.00
                                0.00      0.00   -264.09

     ewald   stress (kbar) -30483.72      0.01      0.01
                                0.01 -30483.69     -0.01
                                0.01     -0.01 -22101.63

     hubbard stress (kbar)      0.00      0.00      0.00
                                0.00      0.00      0.00
                                0.00      0.00      0.00

     london  stress (kbar)      0.00      0.00      0.00
                                0.00      0.00      0.00
                                0.00      0.00      0.00

     DFT-D3  stress (kbar)      0.00      0.00      0.00
                                0.00      0.00      0.00
                                0.00      0.00      0.00

     XDM     stress (kbar)      0.00      0.00      0.00
                                0.00      0.00      0.00
                                0.00      0.00      0.00

     dft-nl  stress (kbar)      0.00      0.00      0.00
                                0.00      0.00      0.00
                                0.00      0.00      0.00

     TS-vdW  stress (kbar)      0.00      0.00      0.00
                                0.00      0.00      0.00
                                0.00      0.00      0.00



     Writing output data file ZnO.save/
 
     init_run     :      0.70s CPU      1.77s WALL (       1 calls)
     electrons    :      4.30s CPU      4.72s WALL (       1 calls)
     forces       :      0.13s CPU      0.15s WALL (       1 calls)
     stress       :      0.23s CPU      0.26s WALL (       1 calls)

     Called by init_run:
     wfcinit      :      0.56s CPU      1.25s WALL (       1 calls)
     wfcinit:atom :      0.00s CPU      0.01s WALL (      65 calls)
     wfcinit:wfcr :      0.55s CPU      1.21s WALL (      65 calls)
     potinit      :      0.05s CPU      0.09s WALL (       1 calls)
     hinit0       :      0.07s CPU      0.25s WALL (       1 calls)

     Called by electrons:
     c_bands      :      3.54s CPU      3.86s WALL (       7 calls)
     sum_band     :      0.53s CPU      0.58s WALL (       7 calls)
     v_of_rho     :      0.20s CPU      0.24s WALL (       8 calls)
     v_h          :      0.00s CPU      0.00s WALL (       8 calls)
     v_xc         :      0.24s CPU      0.28s WALL (      10 calls)
     newd         :      0.03s CPU      0.05s WALL (       8 calls)
     mix_rho      :      0.01s CPU      0.03s WALL (       7 calls)

     Called by c_bands:
     init_us_2    :      0.07s CPU      0.08s WALL (    1105 calls)
     cegterg      :      3.19s CPU      3.39s WALL (     455 calls)

     Called by sum_band:
     sum_band:bec :      0.00s CPU      0.01s WALL (     455 calls)
     addusdens    :      0.03s CPU      0.03s WALL (       7 calls)

     Called by *egterg:
     h_psi        :      1.99s CPU      2.07s WALL (    1476 calls)
     s_psi        :      0.07s CPU      0.08s WALL (    1476 calls)
     g_psi        :      0.00s CPU      0.00s WALL (     956 calls)
     cdiaghg      :      1.14s CPU      1.86s WALL (    1411 calls)
     cegterg:over :      0.26s CPU      0.29s WALL (     956 calls)
     cegterg:upda :      0.11s CPU      0.12s WALL (     956 calls)
     cegterg:last :      0.06s CPU      0.06s WALL (     455 calls)
     cdiaghg:chol :      0.42s CPU      0.64s WALL (    1411 calls)
     cdiaghg:inve :      0.02s CPU      0.05s WALL (    1411 calls)
     cdiaghg:para :      0.08s CPU      0.09s WALL (    2822 calls)

     Called by h_psi:
     h_psi:pot    :      1.98s CPU      2.07s WALL (    1476 calls)
     h_psi:calbec :      0.14s CPU      0.15s WALL (    1476 calls)
     vloc_psi     :      1.76s CPU      1.83s WALL (    1476 calls)
     add_vuspsi   :      0.08s CPU      0.08s WALL (    1476 calls)

     General routines
     calbec       :      0.23s CPU      0.24s WALL (    2256 calls)
     fft          :      0.04s CPU      0.08s WALL (     127 calls)
     ffts         :      0.00s CPU      0.00s WALL (      15 calls)
     fftw         :      2.03s CPU      2.11s WALL (   44786 calls)
     interpolate  :      0.00s CPU      0.01s WALL (       8 calls)
 
     Parallel routines
     fft_scatt_xy :      0.27s CPU      0.28s WALL (   44928 calls)
     fft_scatt_yz :      1.17s CPU      1.22s WALL (   44928 calls)
 
     PWSCF        :      5.94s CPU      9.04s WALL

 
   This run was terminated on:  20:52:28  15Jun2022            

=------------------------------------------------------------------------------=
   JOB DONE.
=------------------------------------------------------------------------------=
