
     Program PWSCF v.6.4.1 starts on 15Jun2022 at 20:44:18 

     This program is part of the open-source Quantum ESPRESSO suite
     for quantum simulation of materials; please cite
         "P. Giannozzi et al., J. Phys.:Condens. Matter 21 395502 (2009);
         "P. Giannozzi et al., J. Phys.:Condens. Matter 29 465901 (2017);
          URL http://www.quantum-espresso.org", 
     in publications or presentations arising from this work. More details at
     http://www.quantum-espresso.org/quote

     Parallel version (MPI), running on    64 processors

     MPI processes distributed on     1 nodes
     K-points division:     npool     =       4
     R & G space division:  proc/nbgrp/npool/nimage =      16
     Waiting for input...
     Reading input from standard input
Warning: card &IONS ignored
Warning: card   UPSCALE           = 100.D0, ignored
Warning: card / ignored
Warning: card &CELL ignored
Warning: card   CELL_DYNAMICS     = 'BFGS' ignored
Warning: card   PRESS_CONV_THR    = 0.5D0 ignored
Warning: card   CELL_DOFREE = 'ALL' ignored
Warning: card / ignored

     Current dimensions of program PWSCF are:
     Max number of different atomic species (ntypx) = 10
     Max number of k-points (npk) =  40000
     Max angular momentum in pseudopotentials (lmaxx) =  3

     Subspace diagonalization in iterative solution of the eigenvalue problem:
     one sub-group per band group will be used
     scalapack distributed-memory algorithm (size of sub-group:  2*  2 procs)

 
     Parallelization info
     --------------------
     sticks:   dense  smooth     PW     G-vecs:    dense   smooth      PW
     Min         101      53     16                 4909     1909     330
     Max         102      55     18                 4914     1912     333
     Sum        1627     859    265                78595    30575    5297
 


     bravais-lattice index     =            0
     lattice parameter (alat)  =       6.2530  a.u.
     unit-cell volume          =     316.5801 (a.u.)^3
     number of atoms/cell      =            4
     number of atomic types    =            2
     number of electrons       =        52.00
     number of Kohn-Sham states=           26
     kinetic-energy cutoff     =      80.0000  Ry
     charge density cutoff     =     600.0000  Ry
     convergence threshold     =      1.0E-06
     mixing beta               =       0.5000
     number of iterations used =            8  plain     mixing
     Exchange-correlation      = SLA  PW   PSX  PSC ( 1  4 10  8 0 0)
     Using LIBXC version       =    4   3   4

     celldm(1)=   6.253032  celldm(2)=   0.000000  celldm(3)=   0.000000
     celldm(4)=   0.000000  celldm(5)=   0.000000  celldm(6)=   0.000000

     crystal axes: (cart. coord. in units of alat)
               a(1) = (   1.000000  -0.000000  -0.000000 )  
               a(2) = (  -0.500000   0.866025   0.000000 )  
               a(3) = (  -0.000000   0.000000   1.495137 )  

     reciprocal axes: (cart. coord. in units 2 pi/alat)
               b(1) = (  1.000000  0.577350 -0.000000 )  
               b(2) = (  0.000000  1.154700 -0.000000 )  
               b(3) = (  0.000000 -0.000000  0.668835 )  


     PseudoPot. # 1 for Zn read from file:
     ./GBRV_PBEsol/zn_pbesol_v1.uspp.F.UPF
     MD5 check sum: 7d8615e52efe7c1e2b1899de8658bae2
     Pseudo is Ultrasoft, Zval = 20.0
     Generated by new atomic code, or converted to UPF format
     Using radial grid of  943 points,  6 beta functions with: 
                l(1) =   0
                l(2) =   0
                l(3) =   1
                l(4) =   1
                l(5) =   2
                l(6) =   2
     Q(r) pseudized with  8 coefficients,  rinner =    1.100   1.100   1.100
                                                       1.100   1.100

     PseudoPot. # 2 for O  read from file:
     ./GBRV_PBEsol/o_pbesol_v1.2.uspp.F.UPF
     MD5 check sum: 501638753501ef6325af9037351f7734
     Pseudo is Ultrasoft + core correction, Zval =  6.0
     Generated by new atomic code, or converted to UPF format
     Using radial grid of  737 points,  5 beta functions with: 
                l(1) =   0
                l(2) =   0
                l(3) =   1
                l(4) =   1
                l(5) =   2
     Q(r) pseudized with  8 coefficients,  rinner =    0.900   0.900   0.900
                                                       0.900   0.900

     atomic species   valence    mass     pseudopotential
        Zn            20.00    65.38000     Zn( 1.00)
        O              6.00    15.99900     O ( 1.00)

     No symmetry found


                                    s                        frac. trans.

      isym =  1     identity                                     

 cryst.   s( 1) = (     1          0          0      )
                  (     0          1          0      )
                  (     0          0          1      )

 cart.    s( 1) = (  1.0000000 -0.0000000 -0.0000000 )
                  (  0.0000000  1.0000000  0.0000000 )
                  (  0.0000000  0.0000000  1.0000000 )


   Cartesian axes

     site n.     atom                  positions (alat units)
         1           O   tau(   1) = (   0.5000001   0.2886755   0.0109831  )
         2           O   tau(   2) = (  -0.0000001   0.5773496   0.7585517  )
         3           Zn  tau(   3) = (   0.4999999   0.2886750   0.6374581  )
         4           Zn  tau(   4) = (  -0.0000004   0.5773516   1.3850268  )

   Crystallographic axes

     site n.     atom                  positions (cryst. coord.)
         1           O   tau(   1) = (  0.6666670  0.3333337  0.0073459  )
         2           O   tau(   2) = (  0.3333329  0.6666657  0.5073458  )
         3           Zn  tau(   3) = (  0.6666664  0.3333329  0.4263542  )
         4           Zn  tau(   4) = (  0.3333336  0.6666677  0.9263542  )

     number of k points=   260
                       cart. coord. in units 2pi/alat
        k(    1) = (   0.0000000   0.0000000   0.0000000), wk =   0.0039062
        k(    2) = (   0.0000000  -0.0000000   0.0836044), wk =   0.0078125
        k(    3) = (   0.0000000  -0.0000000   0.1672087), wk =   0.0078125
        k(    4) = (   0.0000000  -0.0000001   0.2508131), wk =   0.0078125
        k(    5) = (  -0.0000000   0.0000001  -0.3344175), wk =   0.0039062
        k(    6) = (   0.0000000   0.1443376  -0.0000000), wk =   0.0078125
        k(    7) = (   0.0000000   0.1443375   0.0836043), wk =   0.0078125
        k(    8) = (   0.0000000   0.1443375   0.1672087), wk =   0.0078125
        k(    9) = (   0.0000000   0.1443375   0.2508131), wk =   0.0078125
        k(   10) = (  -0.0000000   0.1443377  -0.3344175), wk =   0.0078125
        k(   11) = (  -0.0000000   0.1443376  -0.2508131), wk =   0.0078125
        k(   12) = (  -0.0000000   0.1443376  -0.1672088), wk =   0.0078125
        k(   13) = (  -0.0000000   0.1443376  -0.0836044), wk =   0.0078125
        k(   14) = (   0.0000000   0.2886751  -0.0000001), wk =   0.0078125
        k(   15) = (   0.0000000   0.2886751   0.0836043), wk =   0.0078125
        k(   16) = (   0.0000000   0.2886751   0.1672087), wk =   0.0078125
        k(   17) = (   0.0000000   0.2886750   0.2508130), wk =   0.0078125
        k(   18) = (  -0.0000000   0.2886752  -0.3344175), wk =   0.0078125
        k(   19) = (  -0.0000000   0.2886752  -0.2508132), wk =   0.0078125
        k(   20) = (  -0.0000000   0.2886752  -0.1672088), wk =   0.0078125
        k(   21) = (  -0.0000000   0.2886751  -0.0836044), wk =   0.0078125
        k(   22) = (   0.0000000   0.4330127  -0.0000001), wk =   0.0078125
        k(   23) = (   0.0000000   0.4330127   0.0836043), wk =   0.0078125
        k(   24) = (   0.0000000   0.4330126   0.1672086), wk =   0.0078125
        k(   25) = (   0.0000000   0.4330126   0.2508130), wk =   0.0078125
        k(   26) = (  -0.0000000   0.4330128  -0.3344176), wk =   0.0078125
        k(   27) = (  -0.0000000   0.4330127  -0.2508132), wk =   0.0078125
        k(   28) = (  -0.0000000   0.4330127  -0.1672088), wk =   0.0078125
        k(   29) = (  -0.0000000   0.4330127  -0.0836045), wk =   0.0078125
        k(   30) = (  -0.0000000  -0.5773502   0.0000002), wk =   0.0039062
        k(   31) = (   0.0000000  -0.5773503   0.0836045), wk =   0.0078125
        k(   32) = (   0.0000000  -0.5773503   0.1672089), wk =   0.0078125
        k(   33) = (   0.0000000  -0.5773503   0.2508133), wk =   0.0078125
        k(   34) = (  -0.0000000  -0.5773501  -0.3344173), wk =   0.0039062
        k(   35) = (   0.1250000   0.0721688  -0.0000000), wk =   0.0078125
        k(   36) = (   0.1250000   0.0721688   0.0836044), wk =   0.0078125
        k(   37) = (   0.1250000   0.0721687   0.1672087), wk =   0.0078125
        k(   38) = (   0.1250000   0.0721687   0.2508131), wk =   0.0078125
        k(   39) = (   0.1250000   0.0721689  -0.3344175), wk =   0.0078125
        k(   40) = (   0.1250000   0.0721689  -0.2508131), wk =   0.0078125
        k(   41) = (   0.1250000   0.0721688  -0.1672087), wk =   0.0078125
        k(   42) = (   0.1250000   0.0721688  -0.0836044), wk =   0.0078125
        k(   43) = (   0.1250000   0.2165063  -0.0000000), wk =   0.0078125
        k(   44) = (   0.1250000   0.2165063   0.0836043), wk =   0.0078125
        k(   45) = (   0.1250000   0.2165063   0.1672087), wk =   0.0078125
        k(   46) = (   0.1250000   0.2165063   0.2508131), wk =   0.0078125
        k(   47) = (   0.1250000   0.2165064  -0.3344175), wk =   0.0078125
        k(   48) = (   0.1250000   0.2165064  -0.2508131), wk =   0.0078125
        k(   49) = (   0.1250000   0.2165064  -0.1672088), wk =   0.0078125
        k(   50) = (   0.1250000   0.2165064  -0.0836044), wk =   0.0078125
        k(   51) = (   0.1250000   0.3608439  -0.0000001), wk =   0.0078125
        k(   52) = (   0.1250000   0.3608439   0.0836043), wk =   0.0078125
        k(   53) = (   0.1250000   0.3608438   0.1672087), wk =   0.0078125
        k(   54) = (   0.1250000   0.3608438   0.2508130), wk =   0.0078125
        k(   55) = (   0.1250000   0.3608440  -0.3344175), wk =   0.0078125
        k(   56) = (   0.1250000   0.3608440  -0.2508132), wk =   0.0078125
        k(   57) = (   0.1250000   0.3608439  -0.1672088), wk =   0.0078125
        k(   58) = (   0.1250000   0.3608439  -0.0836044), wk =   0.0078125
        k(   59) = (   0.1250000   0.5051815  -0.0000001), wk =   0.0078125
        k(   60) = (   0.1250000   0.5051814   0.0836043), wk =   0.0078125
        k(   61) = (   0.1250000   0.5051814   0.1672086), wk =   0.0078125
        k(   62) = (   0.1250000   0.5051814   0.2508130), wk =   0.0078125
        k(   63) = (   0.1250000   0.5051816  -0.3344176), wk =   0.0078125
        k(   64) = (   0.1250000   0.5051815  -0.2508132), wk =   0.0078125
        k(   65) = (   0.1250000   0.5051815  -0.1672088), wk =   0.0078125
        k(   66) = (   0.1250000   0.5051815  -0.0836045), wk =   0.0078125
        k(   67) = (   0.1250000  -0.5051815   0.0000002), wk =   0.0078125
        k(   68) = (   0.1250000  -0.5051815   0.0836045), wk =   0.0078125
        k(   69) = (   0.1250000  -0.5051815   0.1672089), wk =   0.0078125
        k(   70) = (   0.1250000  -0.5051815   0.2508133), wk =   0.0078125
        k(   71) = (   0.1250000  -0.5051814  -0.3344173), wk =   0.0078125
        k(   72) = (   0.1250000  -0.5051814  -0.2508129), wk =   0.0078125
        k(   73) = (   0.1250000  -0.5051814  -0.1672086), wk =   0.0078125
        k(   74) = (   0.1250000  -0.5051814  -0.0836042), wk =   0.0078125
        k(   75) = (   0.1250000  -0.3608439   0.0000001), wk =   0.0078125
        k(   76) = (   0.1250000  -0.3608439   0.0836045), wk =   0.0078125
        k(   77) = (   0.1250000  -0.3608439   0.1672088), wk =   0.0078125
        k(   78) = (   0.1250000  -0.3608440   0.2508132), wk =   0.0078125
        k(   79) = (   0.1250000  -0.3608438  -0.3344174), wk =   0.0078125
        k(   80) = (   0.1250000  -0.3608438  -0.2508130), wk =   0.0078125
        k(   81) = (   0.1250000  -0.3608438  -0.1672086), wk =   0.0078125
        k(   82) = (   0.1250000  -0.3608439  -0.0836043), wk =   0.0078125
        k(   83) = (   0.1250000  -0.2165063   0.0000001), wk =   0.0078125
        k(   84) = (   0.1250000  -0.2165064   0.0836044), wk =   0.0078125
        k(   85) = (   0.1250000  -0.2165064   0.1672088), wk =   0.0078125
        k(   86) = (   0.1250000  -0.2165064   0.2508132), wk =   0.0078125
        k(   87) = (   0.1250000  -0.2165062  -0.3344174), wk =   0.0078125
        k(   88) = (   0.1250000  -0.2165063  -0.2508130), wk =   0.0078125
        k(   89) = (   0.1250000  -0.2165063  -0.1672087), wk =   0.0078125
        k(   90) = (   0.1250000  -0.2165063  -0.0836043), wk =   0.0078125
        k(   91) = (   0.1250000  -0.0721688   0.0000000), wk =   0.0078125
        k(   92) = (   0.1250000  -0.0721688   0.0836044), wk =   0.0078125
        k(   93) = (   0.1250000  -0.0721688   0.1672088), wk =   0.0078125
        k(   94) = (   0.1250000  -0.0721689   0.2508131), wk =   0.0078125
        k(   95) = (   0.1250000  -0.0721687  -0.3344174), wk =   0.0078125
        k(   96) = (   0.1250000  -0.0721687  -0.2508131), wk =   0.0078125
        k(   97) = (   0.1250000  -0.0721687  -0.1672087), wk =   0.0078125
        k(   98) = (   0.1250000  -0.0721688  -0.0836043), wk =   0.0078125
        k(   99) = (   0.2500000   0.1443376  -0.0000000), wk =   0.0078125
        k(  100) = (   0.2500000   0.1443375   0.0836044), wk =   0.0078125
        k(  101) = (   0.2500000   0.1443375   0.1672087), wk =   0.0078125
        k(  102) = (   0.2500000   0.1443375   0.2508131), wk =   0.0078125
        k(  103) = (   0.2500000   0.1443377  -0.3344175), wk =   0.0078125
        k(  104) = (   0.2500000   0.1443376  -0.2508131), wk =   0.0078125
        k(  105) = (   0.2500000   0.1443376  -0.1672087), wk =   0.0078125
        k(  106) = (   0.2500000   0.1443376  -0.0836044), wk =   0.0078125
        k(  107) = (   0.2500000   0.2886751  -0.0000000), wk =   0.0078125
        k(  108) = (   0.2500000   0.2886751   0.0836043), wk =   0.0078125
        k(  109) = (   0.2500000   0.2886751   0.1672087), wk =   0.0078125
        k(  110) = (   0.2500000   0.2886750   0.2508131), wk =   0.0078125
        k(  111) = (   0.2500000   0.2886752  -0.3344175), wk =   0.0078125
        k(  112) = (   0.2500000   0.2886752  -0.2508131), wk =   0.0078125
        k(  113) = (   0.2500000   0.2886752  -0.1672088), wk =   0.0078125
        k(  114) = (   0.2500000   0.2886751  -0.0836044), wk =   0.0078125
        k(  115) = (   0.2500000   0.4330127  -0.0000001), wk =   0.0078125
        k(  116) = (   0.2500000   0.4330127   0.0836043), wk =   0.0078125
        k(  117) = (   0.2500000   0.4330126   0.1672087), wk =   0.0078125
        k(  118) = (   0.2500000   0.4330126   0.2508130), wk =   0.0078125
        k(  119) = (   0.2500000   0.4330128  -0.3344175), wk =   0.0078125
        k(  120) = (   0.2500000   0.4330127  -0.2508132), wk =   0.0078125
        k(  121) = (   0.2500000   0.4330127  -0.1672088), wk =   0.0078125
        k(  122) = (   0.2500000   0.4330127  -0.0836044), wk =   0.0078125
        k(  123) = (   0.2500000   0.5773502  -0.0000001), wk =   0.0078125
        k(  124) = (   0.2500000   0.5773502   0.0836043), wk =   0.0078125
        k(  125) = (   0.2500000   0.5773502   0.1672086), wk =   0.0078125
        k(  126) = (   0.2500000   0.5773502   0.2508130), wk =   0.0078125
        k(  127) = (   0.2500000   0.5773503  -0.3344176), wk =   0.0078125
        k(  128) = (   0.2500000   0.5773503  -0.2508132), wk =   0.0078125
        k(  129) = (   0.2500000   0.5773503  -0.1672088), wk =   0.0078125
        k(  130) = (   0.2500000   0.5773503  -0.0836045), wk =   0.0078125
        k(  131) = (   0.2500000  -0.4330127   0.0000002), wk =   0.0078125
        k(  132) = (   0.2500000  -0.4330127   0.0836045), wk =   0.0078125
        k(  133) = (   0.2500000  -0.4330127   0.1672089), wk =   0.0078125
        k(  134) = (   0.2500000  -0.4330127   0.2508133), wk =   0.0078125
        k(  135) = (   0.2500000  -0.4330126  -0.3344173), wk =   0.0078125
        k(  136) = (   0.2500000  -0.4330126  -0.2508129), wk =   0.0078125
        k(  137) = (   0.2500000  -0.4330126  -0.1672086), wk =   0.0078125
        k(  138) = (   0.2500000  -0.4330127  -0.0836042), wk =   0.0078125
        k(  139) = (   0.2500000  -0.2886751   0.0000001), wk =   0.0078125
        k(  140) = (   0.2500000  -0.2886751   0.0836045), wk =   0.0078125
        k(  141) = (   0.2500000  -0.2886752   0.1672088), wk =   0.0078125
        k(  142) = (   0.2500000  -0.2886752   0.2508132), wk =   0.0078125
        k(  143) = (   0.2500000  -0.2886750  -0.3344174), wk =   0.0078125
        k(  144) = (   0.2500000  -0.2886750  -0.2508130), wk =   0.0078125
        k(  145) = (   0.2500000  -0.2886751  -0.1672086), wk =   0.0078125
        k(  146) = (   0.2500000  -0.2886751  -0.0836043), wk =   0.0078125
        k(  147) = (   0.2500000  -0.1443376   0.0000001), wk =   0.0078125
        k(  148) = (   0.2500000  -0.1443376   0.0836044), wk =   0.0078125
        k(  149) = (   0.2500000  -0.1443376   0.1672088), wk =   0.0078125
        k(  150) = (   0.2500000  -0.1443376   0.2508132), wk =   0.0078125
        k(  151) = (   0.2500000  -0.1443375  -0.3344174), wk =   0.0078125
        k(  152) = (   0.2500000  -0.1443375  -0.2508130), wk =   0.0078125
        k(  153) = (   0.2500000  -0.1443375  -0.1672087), wk =   0.0078125
        k(  154) = (   0.2500000  -0.1443375  -0.0836043), wk =   0.0078125
        k(  155) = (   0.2500000   0.0000000   0.0000000), wk =   0.0078125
        k(  156) = (   0.2500000  -0.0000000   0.0836044), wk =   0.0078125
        k(  157) = (   0.2500000  -0.0000000   0.1672088), wk =   0.0078125
        k(  158) = (   0.2500000  -0.0000001   0.2508131), wk =   0.0078125
        k(  159) = (   0.2500000   0.0000001  -0.3344174), wk =   0.0078125
        k(  160) = (   0.2500000   0.0000001  -0.2508131), wk =   0.0078125
        k(  161) = (   0.2500000   0.0000000  -0.1672087), wk =   0.0078125
        k(  162) = (   0.2500000   0.0000000  -0.0836043), wk =   0.0078125
        k(  163) = (   0.3750000   0.2165063  -0.0000000), wk =   0.0078125
        k(  164) = (   0.3750000   0.2165063   0.0836044), wk =   0.0078125
        k(  165) = (   0.3750000   0.2165063   0.1672087), wk =   0.0078125
        k(  166) = (   0.3750000   0.2165063   0.2508131), wk =   0.0078125
        k(  167) = (   0.3750000   0.2165064  -0.3344175), wk =   0.0078125
        k(  168) = (   0.3750000   0.2165064  -0.2508131), wk =   0.0078125
        k(  169) = (   0.3750000   0.2165064  -0.1672087), wk =   0.0078125
        k(  170) = (   0.3750000   0.2165064  -0.0836044), wk =   0.0078125
        k(  171) = (   0.3750000   0.3608439  -0.0000000), wk =   0.0078125
        k(  172) = (   0.3750000   0.3608439   0.0836043), wk =   0.0078125
        k(  173) = (   0.3750000   0.3608438   0.1672087), wk =   0.0078125
        k(  174) = (   0.3750000   0.3608438   0.2508131), wk =   0.0078125
        k(  175) = (   0.3750000   0.3608440  -0.3344175), wk =   0.0078125
        k(  176) = (   0.3750000   0.3608440  -0.2508131), wk =   0.0078125
        k(  177) = (   0.3750000   0.3608439  -0.1672088), wk =   0.0078125
        k(  178) = (   0.3750000   0.3608439  -0.0836044), wk =   0.0078125
        k(  179) = (   0.3750000   0.5051815  -0.0000001), wk =   0.0078125
        k(  180) = (   0.3750000   0.5051814   0.0836043), wk =   0.0078125
        k(  181) = (   0.3750000   0.5051814   0.1672087), wk =   0.0078125
        k(  182) = (   0.3750000   0.5051814   0.2508130), wk =   0.0078125
        k(  183) = (   0.3750000   0.5051816  -0.3344175), wk =   0.0078125
        k(  184) = (   0.3750000   0.5051815  -0.2508132), wk =   0.0078125
        k(  185) = (   0.3750000   0.5051815  -0.1672088), wk =   0.0078125
        k(  186) = (   0.3750000   0.5051815  -0.0836044), wk =   0.0078125
        k(  187) = (   0.3750000   0.6495190  -0.0000001), wk =   0.0078125
        k(  188) = (   0.3750000   0.6495190   0.0836043), wk =   0.0078125
        k(  189) = (   0.3750000   0.6495190   0.1672086), wk =   0.0078125
        k(  190) = (   0.3750000   0.6495189   0.2508130), wk =   0.0078125
        k(  191) = (   0.3750000   0.6495191  -0.3344176), wk =   0.0078125
        k(  192) = (   0.3750000   0.6495191  -0.2508132), wk =   0.0078125
        k(  193) = (   0.3750000   0.6495191  -0.1672088), wk =   0.0078125
        k(  194) = (   0.3750000   0.6495190  -0.0836045), wk =   0.0078125
        k(  195) = (   0.3750000  -0.3608439   0.0000002), wk =   0.0078125
        k(  196) = (   0.3750000  -0.3608439   0.0836045), wk =   0.0078125
        k(  197) = (   0.3750000  -0.3608439   0.1672089), wk =   0.0078125
        k(  198) = (   0.3750000  -0.3608440   0.2508133), wk =   0.0078125
        k(  199) = (   0.3750000  -0.3608438  -0.3344173), wk =   0.0078125
        k(  200) = (   0.3750000  -0.3608438  -0.2508129), wk =   0.0078125
        k(  201) = (   0.3750000  -0.3608438  -0.1672086), wk =   0.0078125
        k(  202) = (   0.3750000  -0.3608439  -0.0836042), wk =   0.0078125
        k(  203) = (   0.3750000  -0.2165063   0.0000001), wk =   0.0078125
        k(  204) = (   0.3750000  -0.2165064   0.0836045), wk =   0.0078125
        k(  205) = (   0.3750000  -0.2165064   0.1672088), wk =   0.0078125
        k(  206) = (   0.3750000  -0.2165064   0.2508132), wk =   0.0078125
        k(  207) = (   0.3750000  -0.2165062  -0.3344174), wk =   0.0078125
        k(  208) = (   0.3750000  -0.2165063  -0.2508130), wk =   0.0078125
        k(  209) = (   0.3750000  -0.2165063  -0.1672086), wk =   0.0078125
        k(  210) = (   0.3750000  -0.2165063  -0.0836043), wk =   0.0078125
        k(  211) = (   0.3750000  -0.0721688   0.0000001), wk =   0.0078125
        k(  212) = (   0.3750000  -0.0721688   0.0836044), wk =   0.0078125
        k(  213) = (   0.3750000  -0.0721688   0.1672088), wk =   0.0078125
        k(  214) = (   0.3750000  -0.0721689   0.2508132), wk =   0.0078125
        k(  215) = (   0.3750000  -0.0721687  -0.3344174), wk =   0.0078125
        k(  216) = (   0.3750000  -0.0721687  -0.2508130), wk =   0.0078125
        k(  217) = (   0.3750000  -0.0721687  -0.1672087), wk =   0.0078125
        k(  218) = (   0.3750000  -0.0721688  -0.0836043), wk =   0.0078125
        k(  219) = (   0.3750000   0.0721688   0.0000000), wk =   0.0078125
        k(  220) = (   0.3750000   0.0721688   0.0836044), wk =   0.0078125
        k(  221) = (   0.3750000   0.0721687   0.1672088), wk =   0.0078125
        k(  222) = (   0.3750000   0.0721687   0.2508131), wk =   0.0078125
        k(  223) = (   0.3750000   0.0721689  -0.3344174), wk =   0.0078125
        k(  224) = (   0.3750000   0.0721689  -0.2508131), wk =   0.0078125
        k(  225) = (   0.3750000   0.0721688  -0.1672087), wk =   0.0078125
        k(  226) = (   0.3750000   0.0721688  -0.0836043), wk =   0.0078125
        k(  227) = (  -0.5000000  -0.2886751   0.0000000), wk =   0.0039062
        k(  228) = (  -0.5000000  -0.2886751   0.0836044), wk =   0.0078125
        k(  229) = (  -0.5000000  -0.2886752   0.1672087), wk =   0.0078125
        k(  230) = (  -0.5000000  -0.2886752   0.2508131), wk =   0.0078125
        k(  231) = (  -0.5000000  -0.2886750  -0.3344175), wk =   0.0039062
        k(  232) = (  -0.5000000  -0.1443376  -0.0000000), wk =   0.0078125
        k(  233) = (  -0.5000000  -0.1443376   0.0836043), wk =   0.0078125
        k(  234) = (  -0.5000000  -0.1443376   0.1672087), wk =   0.0078125
        k(  235) = (  -0.5000000  -0.1443376   0.2508131), wk =   0.0078125
        k(  236) = (  -0.5000000  -0.1443375  -0.3344175), wk =   0.0078125
        k(  237) = (  -0.5000000  -0.1443375  -0.2508131), wk =   0.0078125
        k(  238) = (  -0.5000000  -0.1443375  -0.1672088), wk =   0.0078125
        k(  239) = (  -0.5000000  -0.1443375  -0.0836044), wk =   0.0078125
        k(  240) = (  -0.5000000  -0.0000000  -0.0000001), wk =   0.0078125
        k(  241) = (  -0.5000000  -0.0000000   0.0836043), wk =   0.0078125
        k(  242) = (  -0.5000000  -0.0000000   0.1672087), wk =   0.0078125
        k(  243) = (  -0.5000000  -0.0000001   0.2508130), wk =   0.0078125
        k(  244) = (  -0.5000000   0.0000001  -0.3344175), wk =   0.0078125
        k(  245) = (  -0.5000000   0.0000001  -0.2508132), wk =   0.0078125
        k(  246) = (  -0.5000000   0.0000000  -0.1672088), wk =   0.0078125
        k(  247) = (  -0.5000000   0.0000000  -0.0836044), wk =   0.0078125
        k(  248) = (  -0.5000000   0.1443376  -0.0000001), wk =   0.0078125
        k(  249) = (  -0.5000000   0.1443375   0.0836043), wk =   0.0078125
        k(  250) = (  -0.5000000   0.1443375   0.1672086), wk =   0.0078125
        k(  251) = (  -0.5000000   0.1443375   0.2508130), wk =   0.0078125
        k(  252) = (  -0.5000000   0.1443377  -0.3344176), wk =   0.0078125
        k(  253) = (  -0.5000000   0.1443376  -0.2508132), wk =   0.0078125
        k(  254) = (  -0.5000000   0.1443376  -0.1672088), wk =   0.0078125
        k(  255) = (  -0.5000000   0.1443376  -0.0836045), wk =   0.0078125
        k(  256) = (  -0.5000000  -0.8660254   0.0000002), wk =   0.0039062
        k(  257) = (  -0.5000000  -0.8660254   0.0836045), wk =   0.0078125
        k(  258) = (  -0.5000000  -0.8660254   0.1672089), wk =   0.0078125
        k(  259) = (  -0.5000000  -0.8660254   0.2508133), wk =   0.0078125
        k(  260) = (  -0.5000000  -0.8660253  -0.3344173), wk =   0.0039062

                       cryst. coord.
        k(    1) = (   0.0000000   0.0000000   0.0000000), wk =   0.0039062
        k(    2) = (  -0.0000000   0.0000000   0.1250000), wk =   0.0078125
        k(    3) = (  -0.0000000   0.0000000   0.2500000), wk =   0.0078125
        k(    4) = (  -0.0000000   0.0000000   0.3750000), wk =   0.0078125
        k(    5) = (   0.0000000  -0.0000000  -0.5000000), wk =   0.0039062
        k(    6) = (   0.0000000   0.1250000  -0.0000000), wk =   0.0078125
        k(    7) = (  -0.0000000   0.1250000   0.1250000), wk =   0.0078125
        k(    8) = (   0.0000000   0.1250000   0.2500000), wk =   0.0078125
        k(    9) = (  -0.0000000   0.1250000   0.3750000), wk =   0.0078125
        k(   10) = (  -0.0000000   0.1250000  -0.5000000), wk =   0.0078125
        k(   11) = (   0.0000000   0.1250000  -0.3750000), wk =   0.0078125
        k(   12) = (  -0.0000000   0.1250000  -0.2500000), wk =   0.0078125
        k(   13) = (   0.0000000   0.1250000  -0.1250000), wk =   0.0078125
        k(   14) = (   0.0000000   0.2500000  -0.0000000), wk =   0.0078125
        k(   15) = (  -0.0000000   0.2500000   0.1250000), wk =   0.0078125
        k(   16) = (  -0.0000000   0.2500000   0.2500000), wk =   0.0078125
        k(   17) = (  -0.0000000   0.2500000   0.3750000), wk =   0.0078125
        k(   18) = (  -0.0000000   0.2500000  -0.5000000), wk =   0.0078125
        k(   19) = (   0.0000000   0.2500000  -0.3750000), wk =   0.0078125
        k(   20) = (   0.0000000   0.2500000  -0.2500000), wk =   0.0078125
        k(   21) = (   0.0000000   0.2500000  -0.1250000), wk =   0.0078125
        k(   22) = (   0.0000000   0.3750000  -0.0000000), wk =   0.0078125
        k(   23) = (  -0.0000000   0.3750000   0.1250000), wk =   0.0078125
        k(   24) = (   0.0000000   0.3750000   0.2500000), wk =   0.0078125
        k(   25) = (   0.0000000   0.3750000   0.3750000), wk =   0.0078125
        k(   26) = (   0.0000000   0.3750000  -0.5000000), wk =   0.0078125
        k(   27) = (  -0.0000000   0.3750000  -0.3750000), wk =   0.0078125
        k(   28) = (  -0.0000000   0.3750000  -0.2500000), wk =   0.0078125
        k(   29) = (   0.0000000   0.3750000  -0.1250000), wk =   0.0078125
        k(   30) = (  -0.0000000  -0.5000000   0.0000000), wk =   0.0039062
        k(   31) = (  -0.0000000  -0.5000000   0.1250000), wk =   0.0078125
        k(   32) = (  -0.0000000  -0.5000000   0.2500000), wk =   0.0078125
        k(   33) = (  -0.0000000  -0.5000000   0.3750000), wk =   0.0078125
        k(   34) = (   0.0000000  -0.5000000  -0.5000000), wk =   0.0039062
        k(   35) = (   0.1250000  -0.0000000  -0.0000000), wk =   0.0078125
        k(   36) = (   0.1250000  -0.0000000   0.1250000), wk =   0.0078125
        k(   37) = (   0.1250000  -0.0000000   0.2500000), wk =   0.0078125
        k(   38) = (   0.1250000  -0.0000000   0.3750000), wk =   0.0078125
        k(   39) = (   0.1250000  -0.0000000  -0.5000000), wk =   0.0078125
        k(   40) = (   0.1250000  -0.0000000  -0.3750000), wk =   0.0078125
        k(   41) = (   0.1250000  -0.0000000  -0.2500000), wk =   0.0078125
        k(   42) = (   0.1250000  -0.0000000  -0.1250000), wk =   0.0078125
        k(   43) = (   0.1250000   0.1250000  -0.0000000), wk =   0.0078125
        k(   44) = (   0.1250000   0.1250000   0.1250000), wk =   0.0078125
        k(   45) = (   0.1250000   0.1250000   0.2500000), wk =   0.0078125
        k(   46) = (   0.1250000   0.1250000   0.3750000), wk =   0.0078125
        k(   47) = (   0.1250000   0.1250000  -0.5000000), wk =   0.0078125
        k(   48) = (   0.1250000   0.1250000  -0.3750000), wk =   0.0078125
        k(   49) = (   0.1250000   0.1250000  -0.2500000), wk =   0.0078125
        k(   50) = (   0.1250000   0.1250000  -0.1250000), wk =   0.0078125
        k(   51) = (   0.1250000   0.2500000   0.0000000), wk =   0.0078125
        k(   52) = (   0.1250000   0.2500000   0.1250000), wk =   0.0078125
        k(   53) = (   0.1250000   0.2500000   0.2500000), wk =   0.0078125
        k(   54) = (   0.1250000   0.2500000   0.3750000), wk =   0.0078125
        k(   55) = (   0.1250000   0.2500000  -0.5000000), wk =   0.0078125
        k(   56) = (   0.1250000   0.2500000  -0.3750000), wk =   0.0078125
        k(   57) = (   0.1250000   0.2500000  -0.2500000), wk =   0.0078125
        k(   58) = (   0.1250000   0.2500000  -0.1250000), wk =   0.0078125
        k(   59) = (   0.1250000   0.3750000  -0.0000000), wk =   0.0078125
        k(   60) = (   0.1250000   0.3750000   0.1250000), wk =   0.0078125
        k(   61) = (   0.1250000   0.3750000   0.2500000), wk =   0.0078125
        k(   62) = (   0.1250000   0.3750000   0.3750000), wk =   0.0078125
        k(   63) = (   0.1250000   0.3750000  -0.5000000), wk =   0.0078125
        k(   64) = (   0.1250000   0.3750000  -0.3750000), wk =   0.0078125
        k(   65) = (   0.1250000   0.3750000  -0.2500000), wk =   0.0078125
        k(   66) = (   0.1250000   0.3750000  -0.1250000), wk =   0.0078125
        k(   67) = (   0.1250000  -0.5000000   0.0000000), wk =   0.0078125
        k(   68) = (   0.1250000  -0.5000000   0.1250000), wk =   0.0078125
        k(   69) = (   0.1250000  -0.5000000   0.2500000), wk =   0.0078125
        k(   70) = (   0.1250000  -0.5000000   0.3750000), wk =   0.0078125
        k(   71) = (   0.1250000  -0.5000000  -0.5000000), wk =   0.0078125
        k(   72) = (   0.1250000  -0.5000000  -0.3750000), wk =   0.0078125
        k(   73) = (   0.1250000  -0.5000000  -0.2500000), wk =   0.0078125
        k(   74) = (   0.1250000  -0.5000000  -0.1250000), wk =   0.0078125
        k(   75) = (   0.1250000  -0.3750000   0.0000000), wk =   0.0078125
        k(   76) = (   0.1250000  -0.3750000   0.1250000), wk =   0.0078125
        k(   77) = (   0.1250000  -0.3750000   0.2500000), wk =   0.0078125
        k(   78) = (   0.1250000  -0.3750000   0.3750000), wk =   0.0078125
        k(   79) = (   0.1250000  -0.3750000  -0.5000000), wk =   0.0078125
        k(   80) = (   0.1250000  -0.3750000  -0.3750000), wk =   0.0078125
        k(   81) = (   0.1250000  -0.3750000  -0.2500000), wk =   0.0078125
        k(   82) = (   0.1250000  -0.3750000  -0.1250000), wk =   0.0078125
        k(   83) = (   0.1250000  -0.2500000   0.0000000), wk =   0.0078125
        k(   84) = (   0.1250000  -0.2500000   0.1250000), wk =   0.0078125
        k(   85) = (   0.1250000  -0.2500000   0.2500000), wk =   0.0078125
        k(   86) = (   0.1250000  -0.2500000   0.3750000), wk =   0.0078125
        k(   87) = (   0.1250000  -0.2500000  -0.5000000), wk =   0.0078125
        k(   88) = (   0.1250000  -0.2500000  -0.3750000), wk =   0.0078125
        k(   89) = (   0.1250000  -0.2500000  -0.2500000), wk =   0.0078125
        k(   90) = (   0.1250000  -0.2500000  -0.1250000), wk =   0.0078125
        k(   91) = (   0.1250000  -0.1250000  -0.0000000), wk =   0.0078125
        k(   92) = (   0.1250000  -0.1250000   0.1250000), wk =   0.0078125
        k(   93) = (   0.1250000  -0.1250000   0.2500000), wk =   0.0078125
        k(   94) = (   0.1250000  -0.1250000   0.3750000), wk =   0.0078125
        k(   95) = (   0.1250000  -0.1250000  -0.5000000), wk =   0.0078125
        k(   96) = (   0.1250000  -0.1250000  -0.3750000), wk =   0.0078125
        k(   97) = (   0.1250000  -0.1250000  -0.2500000), wk =   0.0078125
        k(   98) = (   0.1250000  -0.1250000  -0.1250000), wk =   0.0078125
        k(   99) = (   0.2500000  -0.0000000  -0.0000000), wk =   0.0078125
        k(  100) = (   0.2500000   0.0000000   0.1250000), wk =   0.0078125
        k(  101) = (   0.2500000  -0.0000000   0.2500000), wk =   0.0078125
        k(  102) = (   0.2500000  -0.0000000   0.3750000), wk =   0.0078125
        k(  103) = (   0.2500000  -0.0000000  -0.5000000), wk =   0.0078125
        k(  104) = (   0.2500000  -0.0000000  -0.3750000), wk =   0.0078125
        k(  105) = (   0.2500000  -0.0000000  -0.2500000), wk =   0.0078125
        k(  106) = (   0.2500000  -0.0000000  -0.1250000), wk =   0.0078125
        k(  107) = (   0.2500000   0.1250000  -0.0000000), wk =   0.0078125
        k(  108) = (   0.2500000   0.1250000   0.1250000), wk =   0.0078125
        k(  109) = (   0.2500000   0.1250000   0.2500000), wk =   0.0078125
        k(  110) = (   0.2500000   0.1250000   0.3750000), wk =   0.0078125
        k(  111) = (   0.2500000   0.1250000  -0.5000000), wk =   0.0078125
        k(  112) = (   0.2500000   0.1250000  -0.3750000), wk =   0.0078125
        k(  113) = (   0.2500000   0.1250000  -0.2500000), wk =   0.0078125
        k(  114) = (   0.2500000   0.1250000  -0.1250000), wk =   0.0078125
        k(  115) = (   0.2500000   0.2500000  -0.0000000), wk =   0.0078125
        k(  116) = (   0.2500000   0.2500000   0.1250000), wk =   0.0078125
        k(  117) = (   0.2500000   0.2500000   0.2500000), wk =   0.0078125
        k(  118) = (   0.2500000   0.2500000   0.3750000), wk =   0.0078125
        k(  119) = (   0.2500000   0.2500000  -0.5000000), wk =   0.0078125
        k(  120) = (   0.2500000   0.2500000  -0.3750000), wk =   0.0078125
        k(  121) = (   0.2500000   0.2500000  -0.2500000), wk =   0.0078125
        k(  122) = (   0.2500000   0.2500000  -0.1250000), wk =   0.0078125
        k(  123) = (   0.2500000   0.3750000  -0.0000000), wk =   0.0078125
        k(  124) = (   0.2500000   0.3750000   0.1250000), wk =   0.0078125
        k(  125) = (   0.2500000   0.3750000   0.2500000), wk =   0.0078125
        k(  126) = (   0.2500000   0.3750000   0.3750000), wk =   0.0078125
        k(  127) = (   0.2500000   0.3750000  -0.5000000), wk =   0.0078125
        k(  128) = (   0.2500000   0.3750000  -0.3750000), wk =   0.0078125
        k(  129) = (   0.2500000   0.3750000  -0.2500000), wk =   0.0078125
        k(  130) = (   0.2500000   0.3750000  -0.1250000), wk =   0.0078125
        k(  131) = (   0.2500000  -0.5000000   0.0000000), wk =   0.0078125
        k(  132) = (   0.2500000  -0.5000000   0.1250000), wk =   0.0078125
        k(  133) = (   0.2500000  -0.5000000   0.2500000), wk =   0.0078125
        k(  134) = (   0.2500000  -0.5000000   0.3750000), wk =   0.0078125
        k(  135) = (   0.2500000  -0.5000000  -0.5000000), wk =   0.0078125
        k(  136) = (   0.2500000  -0.5000000  -0.3750000), wk =   0.0078125
        k(  137) = (   0.2500000  -0.5000000  -0.2500000), wk =   0.0078125
        k(  138) = (   0.2500000  -0.5000000  -0.1250000), wk =   0.0078125
        k(  139) = (   0.2500000  -0.3750000  -0.0000000), wk =   0.0078125
        k(  140) = (   0.2500000  -0.3750000   0.1250000), wk =   0.0078125
        k(  141) = (   0.2500000  -0.3750000   0.2500000), wk =   0.0078125
        k(  142) = (   0.2500000  -0.3750000   0.3750000), wk =   0.0078125
        k(  143) = (   0.2500000  -0.3750000  -0.5000000), wk =   0.0078125
        k(  144) = (   0.2500000  -0.3750000  -0.3750000), wk =   0.0078125
        k(  145) = (   0.2500000  -0.3750000  -0.2500000), wk =   0.0078125
        k(  146) = (   0.2500000  -0.3750000  -0.1250000), wk =   0.0078125
        k(  147) = (   0.2500000  -0.2500000  -0.0000000), wk =   0.0078125
        k(  148) = (   0.2500000  -0.2500000   0.1250000), wk =   0.0078125
        k(  149) = (   0.2500000  -0.2500000   0.2500000), wk =   0.0078125
        k(  150) = (   0.2500000  -0.2500000   0.3750000), wk =   0.0078125
        k(  151) = (   0.2500000  -0.2500000  -0.5000000), wk =   0.0078125
        k(  152) = (   0.2500000  -0.2500000  -0.3750000), wk =   0.0078125
        k(  153) = (   0.2500000  -0.2500000  -0.2500000), wk =   0.0078125
        k(  154) = (   0.2500000  -0.2500000  -0.1250000), wk =   0.0078125
        k(  155) = (   0.2500000  -0.1250000  -0.0000000), wk =   0.0078125
        k(  156) = (   0.2500000  -0.1250000   0.1250000), wk =   0.0078125
        k(  157) = (   0.2500000  -0.1250000   0.2500000), wk =   0.0078125
        k(  158) = (   0.2500000  -0.1250000   0.3750000), wk =   0.0078125
        k(  159) = (   0.2500000  -0.1250000  -0.5000000), wk =   0.0078125
        k(  160) = (   0.2500000  -0.1250000  -0.3750000), wk =   0.0078125
        k(  161) = (   0.2500000  -0.1250000  -0.2500000), wk =   0.0078125
        k(  162) = (   0.2500000  -0.1250000  -0.1250000), wk =   0.0078125
        k(  163) = (   0.3750000  -0.0000000  -0.0000000), wk =   0.0078125
        k(  164) = (   0.3750000  -0.0000000   0.1250000), wk =   0.0078125
        k(  165) = (   0.3750000  -0.0000000   0.2500000), wk =   0.0078125
        k(  166) = (   0.3750000  -0.0000000   0.3750000), wk =   0.0078125
        k(  167) = (   0.3750000  -0.0000000  -0.5000000), wk =   0.0078125
        k(  168) = (   0.3750000  -0.0000000  -0.3750000), wk =   0.0078125
        k(  169) = (   0.3750000  -0.0000000  -0.2500000), wk =   0.0078125
        k(  170) = (   0.3750000  -0.0000000  -0.1250000), wk =   0.0078125
        k(  171) = (   0.3750000   0.1250000  -0.0000000), wk =   0.0078125
        k(  172) = (   0.3750000   0.1250000   0.1250000), wk =   0.0078125
        k(  173) = (   0.3750000   0.1250000   0.2500000), wk =   0.0078125
        k(  174) = (   0.3750000   0.1250000   0.3750000), wk =   0.0078125
        k(  175) = (   0.3750000   0.1250000  -0.5000000), wk =   0.0078125
        k(  176) = (   0.3750000   0.1250000  -0.3750000), wk =   0.0078125
        k(  177) = (   0.3750000   0.1250000  -0.2500000), wk =   0.0078125
        k(  178) = (   0.3750000   0.1250000  -0.1250000), wk =   0.0078125
        k(  179) = (   0.3750000   0.2500000   0.0000000), wk =   0.0078125
        k(  180) = (   0.3750000   0.2500000   0.1250000), wk =   0.0078125
        k(  181) = (   0.3750000   0.2500000   0.2500000), wk =   0.0078125
        k(  182) = (   0.3750000   0.2500000   0.3750000), wk =   0.0078125
        k(  183) = (   0.3750000   0.2500000  -0.5000000), wk =   0.0078125
        k(  184) = (   0.3750000   0.2500000  -0.3750000), wk =   0.0078125
        k(  185) = (   0.3750000   0.2500000  -0.2500000), wk =   0.0078125
        k(  186) = (   0.3750000   0.2500000  -0.1250000), wk =   0.0078125
        k(  187) = (   0.3750000   0.3750000  -0.0000000), wk =   0.0078125
        k(  188) = (   0.3750000   0.3750000   0.1250000), wk =   0.0078125
        k(  189) = (   0.3750000   0.3750000   0.2500000), wk =   0.0078125
        k(  190) = (   0.3750000   0.3750000   0.3750000), wk =   0.0078125
        k(  191) = (   0.3750000   0.3750000  -0.5000000), wk =   0.0078125
        k(  192) = (   0.3750000   0.3750000  -0.3750000), wk =   0.0078125
        k(  193) = (   0.3750000   0.3750000  -0.2500000), wk =   0.0078125
        k(  194) = (   0.3750000   0.3750000  -0.1250000), wk =   0.0078125
        k(  195) = (   0.3750000  -0.5000000   0.0000000), wk =   0.0078125
        k(  196) = (   0.3750000  -0.5000000   0.1250000), wk =   0.0078125
        k(  197) = (   0.3750000  -0.5000000   0.2500000), wk =   0.0078125
        k(  198) = (   0.3750000  -0.5000000   0.3750000), wk =   0.0078125
        k(  199) = (   0.3750000  -0.5000000  -0.5000000), wk =   0.0078125
        k(  200) = (   0.3750000  -0.5000000  -0.3750000), wk =   0.0078125
        k(  201) = (   0.3750000  -0.5000000  -0.2500000), wk =   0.0078125
        k(  202) = (   0.3750000  -0.5000000  -0.1250000), wk =   0.0078125
        k(  203) = (   0.3750000  -0.3750000   0.0000000), wk =   0.0078125
        k(  204) = (   0.3750000  -0.3750000   0.1250000), wk =   0.0078125
        k(  205) = (   0.3750000  -0.3750000   0.2500000), wk =   0.0078125
        k(  206) = (   0.3750000  -0.3750000   0.3750000), wk =   0.0078125
        k(  207) = (   0.3750000  -0.3750000  -0.5000000), wk =   0.0078125
        k(  208) = (   0.3750000  -0.3750000  -0.3750000), wk =   0.0078125
        k(  209) = (   0.3750000  -0.3750000  -0.2500000), wk =   0.0078125
        k(  210) = (   0.3750000  -0.3750000  -0.1250000), wk =   0.0078125
        k(  211) = (   0.3750000  -0.2500000  -0.0000000), wk =   0.0078125
        k(  212) = (   0.3750000  -0.2500000   0.1250000), wk =   0.0078125
        k(  213) = (   0.3750000  -0.2500000   0.2500000), wk =   0.0078125
        k(  214) = (   0.3750000  -0.2500000   0.3750000), wk =   0.0078125
        k(  215) = (   0.3750000  -0.2500000  -0.5000000), wk =   0.0078125
        k(  216) = (   0.3750000  -0.2500000  -0.3750000), wk =   0.0078125
        k(  217) = (   0.3750000  -0.2500000  -0.2500000), wk =   0.0078125
        k(  218) = (   0.3750000  -0.2500000  -0.1250000), wk =   0.0078125
        k(  219) = (   0.3750000  -0.1250000  -0.0000000), wk =   0.0078125
        k(  220) = (   0.3750000  -0.1250000   0.1250000), wk =   0.0078125
        k(  221) = (   0.3750000  -0.1250000   0.2500000), wk =   0.0078125
        k(  222) = (   0.3750000  -0.1250000   0.3750000), wk =   0.0078125
        k(  223) = (   0.3750000  -0.1250000  -0.5000000), wk =   0.0078125
        k(  224) = (   0.3750000  -0.1250000  -0.3750000), wk =   0.0078125
        k(  225) = (   0.3750000  -0.1250000  -0.2500000), wk =   0.0078125
        k(  226) = (   0.3750000  -0.1250000  -0.1250000), wk =   0.0078125
        k(  227) = (  -0.5000000   0.0000000   0.0000000), wk =   0.0039062
        k(  228) = (  -0.5000000   0.0000000   0.1250000), wk =   0.0078125
        k(  229) = (  -0.5000000   0.0000000   0.2500000), wk =   0.0078125
        k(  230) = (  -0.5000000   0.0000000   0.3750000), wk =   0.0078125
        k(  231) = (  -0.5000000   0.0000000  -0.5000000), wk =   0.0039062
        k(  232) = (  -0.5000000   0.1250000   0.0000000), wk =   0.0078125
        k(  233) = (  -0.5000000   0.1250000   0.1250000), wk =   0.0078125
        k(  234) = (  -0.5000000   0.1250000   0.2500000), wk =   0.0078125
        k(  235) = (  -0.5000000   0.1250000   0.3750000), wk =   0.0078125
        k(  236) = (  -0.5000000   0.1250000  -0.5000000), wk =   0.0078125
        k(  237) = (  -0.5000000   0.1250000  -0.3750000), wk =   0.0078125
        k(  238) = (  -0.5000000   0.1250000  -0.2500000), wk =   0.0078125
        k(  239) = (  -0.5000000   0.1250000  -0.1250000), wk =   0.0078125
        k(  240) = (  -0.5000000   0.2500000   0.0000000), wk =   0.0078125
        k(  241) = (  -0.5000000   0.2500000   0.1250000), wk =   0.0078125
        k(  242) = (  -0.5000000   0.2500000   0.2500000), wk =   0.0078125
        k(  243) = (  -0.5000000   0.2500000   0.3750000), wk =   0.0078125
        k(  244) = (  -0.5000000   0.2500000  -0.5000000), wk =   0.0078125
        k(  245) = (  -0.5000000   0.2500000  -0.3750000), wk =   0.0078125
        k(  246) = (  -0.5000000   0.2500000  -0.2500000), wk =   0.0078125
        k(  247) = (  -0.5000000   0.2500000  -0.1250000), wk =   0.0078125
        k(  248) = (  -0.5000000   0.3750000   0.0000000), wk =   0.0078125
        k(  249) = (  -0.5000000   0.3750000   0.1250000), wk =   0.0078125
        k(  250) = (  -0.5000000   0.3750000   0.2500000), wk =   0.0078125
        k(  251) = (  -0.5000000   0.3750000   0.3750000), wk =   0.0078125
        k(  252) = (  -0.5000000   0.3750000  -0.5000000), wk =   0.0078125
        k(  253) = (  -0.5000000   0.3750000  -0.3750000), wk =   0.0078125
        k(  254) = (  -0.5000000   0.3750000  -0.2500000), wk =   0.0078125
        k(  255) = (  -0.5000000   0.3750000  -0.1250000), wk =   0.0078125
        k(  256) = (  -0.5000000  -0.5000000   0.0000000), wk =   0.0039062
        k(  257) = (  -0.5000000  -0.5000000   0.1250000), wk =   0.0078125
        k(  258) = (  -0.5000000  -0.5000000   0.2500000), wk =   0.0078125
        k(  259) = (  -0.5000000  -0.5000000   0.3750000), wk =   0.0078125
        k(  260) = (  -0.5000000  -0.5000000  -0.5000000), wk =   0.0039062

     Dense  grid:    78595 G-vectors     FFT dimensions: (  50,  50,  80)

     Smooth grid:    30575 G-vectors     FFT dimensions: (  36,  36,  54)

     Dynamical RAM for                 wfc:       0.09 MB

     Dynamical RAM for     wfc (w. buffer):       6.26 MB

     Dynamical RAM for           str. fact:       0.15 MB

     Dynamical RAM for           local pot:       0.00 MB

     Dynamical RAM for          nlocal pot:       0.23 MB

     Dynamical RAM for                qrad:       3.91 MB

     Dynamical RAM for          rho,v,vnew:       0.51 MB

     Dynamical RAM for               rhoin:       0.17 MB

     Dynamical RAM for            rho*nmix:       1.20 MB

     Dynamical RAM for           G-vectors:       0.30 MB

     Dynamical RAM for          h,s,v(r/c):       0.12 MB

     Dynamical RAM for          <psi|beta>:       0.02 MB

     Dynamical RAM for                 psi:       0.38 MB

     Dynamical RAM for                hpsi:       0.38 MB

     Dynamical RAM for                spsi:       0.38 MB

     Dynamical RAM for      wfcinit/wfcrot:       0.27 MB

     Dynamical RAM for           addusdens:       3.58 MB

     Dynamical RAM for          addusforce:       3.73 MB

     Dynamical RAM for         addusstress:       3.79 MB

     Estimated static dynamical RAM per process >      13.42 MB

     Estimated max dynamical RAM per process >      17.22 MB

     Estimated total dynamical RAM >       1.08 GB

     Check: negative core charge=   -0.000003

     Initial potential from superposition of free atoms

     starting charge   51.99974, renormalised to   52.00000
     Starting wfcs are   34 randomized atomic wfcs

     total cpu time spent up to now is        3.1 secs

     Self-consistent Calculation

     iteration #  1     ecut=    80.00 Ry     beta= 0.50
     Davidson diagonalization with overlap
     ethr =  1.00E-02,  avg # of iterations =  1.0

     total cpu time spent up to now is        4.0 secs

     total energy              =    -986.76132307 Ry
     Harris-Foulkes estimate   =    -987.28377109 Ry
     estimated scf accuracy    <       0.82166038 Ry

     iteration #  2     ecut=    80.00 Ry     beta= 0.50
     Davidson diagonalization with overlap
     ethr =  1.58E-03,  avg # of iterations =  3.0

     total cpu time spent up to now is        5.2 secs

     total energy              =    -987.00320422 Ry
     Harris-Foulkes estimate   =    -987.17164654 Ry
     estimated scf accuracy    <       0.38899676 Ry

     iteration #  3     ecut=    80.00 Ry     beta= 0.50
     Davidson diagonalization with overlap
     ethr =  7.48E-04,  avg # of iterations =  2.1

     total cpu time spent up to now is        6.3 secs

     total energy              =    -987.07317111 Ry
     Harris-Foulkes estimate   =    -987.07546010 Ry
     estimated scf accuracy    <       0.00685843 Ry

     iteration #  4     ecut=    80.00 Ry     beta= 0.50
     Davidson diagonalization with overlap
     ethr =  1.32E-05,  avg # of iterations =  2.0

     total cpu time spent up to now is        7.4 secs

     total energy              =    -987.07375718 Ry
     Harris-Foulkes estimate   =    -987.07420890 Ry
     estimated scf accuracy    <       0.00153557 Ry

     iteration #  5     ecut=    80.00 Ry     beta= 0.50
     Davidson diagonalization with overlap
     ethr =  2.95E-06,  avg # of iterations =  2.0

     total cpu time spent up to now is        8.5 secs

     total energy              =    -987.07391767 Ry
     Harris-Foulkes estimate   =    -987.07392718 Ry
     estimated scf accuracy    <       0.00001857 Ry

     iteration #  6     ecut=    80.00 Ry     beta= 0.50
     Davidson diagonalization with overlap
     ethr =  3.57E-08,  avg # of iterations =  2.0

     total cpu time spent up to now is        9.5 secs

     total energy              =    -987.07392075 Ry
     Harris-Foulkes estimate   =    -987.07391996 Ry
     estimated scf accuracy    <       0.00000354 Ry

     iteration #  7     ecut=    80.00 Ry     beta= 0.50
     Davidson diagonalization with overlap
     ethr =  6.81E-09,  avg # of iterations =  2.0

     total cpu time spent up to now is       10.5 secs

     End of self-consistent calculation

          k = 0.0000 0.0000 0.0000 (  3765 PWs)   bands (ev):

  -114.2458-114.2455 -68.6340 -68.6297 -68.5904 -68.5904 -68.5894 -68.5894
    -9.1712  -8.2877   3.0039   3.0039   3.0638   3.0638   3.5101   3.6225
     4.2776   4.2776   4.5427   4.5427   4.9235   8.1635   8.1635   8.5175
     8.8589   8.8589

     occupation numbers 
     1.0000   1.0000   1.0000   1.0000   1.0000   1.0000   1.0000   1.0000
     1.0000   1.0000   1.0000   1.0000   1.0000   1.0000   1.0000   1.0000
     1.0000   1.0000   1.0000   1.0000   1.0000   1.0000   1.0000   1.0000
     1.0000   1.0000

          k = 0.0000-0.0000 0.0836 (  3801 PWs)   bands (ev):

  -114.2458-114.2455 -68.6339 -68.6299 -68.5904 -68.5904 -68.5895 -68.5895
    -9.1390  -8.3227   3.0010   3.0010   3.0565   3.0565   3.4090   3.5742
     4.2929   4.2929   4.5378   4.5378   5.1292   8.1916   8.1916   8.2030
     8.8346   8.8346

     occupation numbers 
     1.0000   1.0000   1.0000   1.0000   1.0000   1.0000   1.0000   1.0000
     1.0000   1.0000   1.0000   1.0000   1.0000   1.0000   1.0000   1.0000
     1.0000   1.0000   1.0000   1.0000   1.0000   1.0000   1.0000   1.0000
     1.0000   1.0000

          k = 0.0000-0.0000 0.1672 (  3807 PWs)   bands (ev):

  -114.2458-114.2456 -68.6334 -68.6304 -68.5902 -68.5902 -68.5896 -68.5896
    -9.0469  -8.4218   2.9953   2.9953   3.0381   3.0381   3.2454   3.4493
     4.3341   4.3341   4.5214   4.5214   5.5911   7.6886   8.2712   8.2712
     8.7642   8.7642

     occupation numbers 
     1.0000   1.0000   1.0000   1.0000   1.0000   1.0000   1.0000   1.0000
     1.0000   1.0000   1.0000   1.0000   1.0000   1.0000   1.0000   1.0000
     1.0000   1.0000   1.0000   1.0000   1.0000   1.0000   1.0000   1.0000
     1.0000   1.0000

          k = 0.0000-0.0000 0.2508 (  3842 PWs)   bands (ev):

  -114.2458-114.2456 -68.6328 -68.6311 -68.5902 -68.5902 -68.5898 -68.5898
    -8.9070  -8.5687   2.9932   2.9932   3.0166   3.0166   3.1602   3.2992
     4.3892   4.3892   4.4905   4.4905   6.1286   7.1769   8.3887   8.3887
     8.6560   8.6560

     occupation numbers 
     1.0000   1.0000   1.0000   1.0000   1.0000   1.0000   1.0000   1.0000
     1.0000   1.0000   1.0000   1.0000   1.0000   1.0000   1.0000   1.0000
     1.0000   1.0000   1.0000   1.0000   1.0000   1.0000   1.0000   1.0000
     1.0000   1.0000

          k =-0.0000 0.0000-0.3344 (  3866 PWs)   bands (ev):

  -114.2457-114.2456 -68.6320 -68.6319 -68.5900 -68.5900 -68.5900 -68.5900
    -8.7394  -8.7392   3.0001   3.0001   3.0001   3.0001   3.1857   3.1858
     4.4448   4.4448   4.4448   4.4448   6.6628   6.6629   8.5242   8.5242
     8.5243   8.5243

     occupation numbers 
     1.0000   1.0000   1.0000   1.0000   1.0000   1.0000   1.0000   1.0000
     1.0000   1.0000   1.0000   1.0000   1.0000   1.0000   1.0000   1.0000
     1.0000   1.0000   1.0000   1.0000   1.0000   1.0000   1.0000   1.0000
     1.0000   1.0000

          k = 0.0000 0.1443-0.0000 (  3805 PWs)   bands (ev):

  -114.2458-114.2455 -68.6338 -68.6299 -68.5907 -68.5905 -68.5898 -68.5895
    -9.0838  -8.2563   2.9248   3.0613   3.0766   3.1455   3.5275   3.6557
     4.2452   4.2651   4.5529   4.6975   4.9198   7.5953   7.9179   8.0329
     8.4496   8.7021

     occupation numbers 
     1.0000   1.0000   1.0000   1.0000   1.0000   1.0000   1.0000   1.0000
     1.0000   1.0000   1.0000   1.0000   1.0000   1.0000   1.0000   1.0000
     1.0000   1.0000   1.0000   1.0000   1.0000   1.0000   1.0000   1.0000
     1.0000   1.0000

          k = 0.0000 0.1443 0.0836 (  3808 PWs)   bands (ev):

  -114.2458-114.2455 -68.6337 -68.6300 -68.5906 -68.5905 -68.5898 -68.5895
    -9.0533  -8.2885   2.9178   3.0358   3.0740   3.1377   3.4435   3.6058
     4.2687   4.2809   4.5465   4.6300   5.1789   7.6155   7.8323   7.9496
     8.5441   8.6745

     occupation numbers 
     1.0000   1.0000   1.0000   1.0000   1.0000   1.0000   1.0000   1.0000
     1.0000   1.0000   1.0000   1.0000   1.0000   1.0000   1.0000   1.0000
     1.0000   1.0000   1.0000   1.0000   1.0000   1.0000   1.0000   1.0000
     1.0000   1.0000

          k = 0.0000 0.1443 0.1672 (  3815 PWs)   bands (ev):

  -114.2458-114.2456 -68.6333 -68.6305 -68.5906 -68.5904 -68.5899 -68.5897
    -8.9658  -8.3801   2.8979   2.9647   3.0692   3.1181   3.3204   3.4867
     4.3236   4.3262   4.5263   4.5752   5.6562   7.4039   7.7964   8.0392
     8.5593   8.5947

     occupation numbers 
     1.0000   1.0000   1.0000   1.0000   1.0000   1.0000   1.0000   1.0000
     1.0000   1.0000   1.0000   1.0000   1.0000   1.0000   1.0000   1.0000
     1.0000   1.0000   1.0000   1.0000   1.0000   1.0000   1.0000   1.0000
     1.0000   1.0000

          k = 0.0000 0.1443 0.2508 (  3816 PWs)   bands (ev):

  -114.2457-114.2456 -68.6327 -68.6311 -68.5904 -68.5902 -68.5900 -68.5898
    -8.8337  -8.5165   2.8708   2.8935   3.0685   3.0949   3.2660   3.3608
     4.3811   4.3970   4.4906   4.5259   6.1630   7.0301   7.9789   8.1714
     8.4270   8.4724

     occupation numbers 
     1.0000   1.0000   1.0000   1.0000   1.0000   1.0000   1.0000   1.0000
     1.0000   1.0000   1.0000   1.0000   1.0000   1.0000   1.0000   1.0000
     1.0000   1.0000   1.0000   1.0000   1.0000   1.0000   1.0000   1.0000
     1.0000   1.0000

          k =-0.0000 0.1443-0.3344 (  3820 PWs)   bands (ev):

  -114.2457-114.2456 -68.6320 -68.6319 -68.5902 -68.5902 -68.5901 -68.5900
    -8.6761  -8.6759   2.8622   2.8622   3.0768   3.0768   3.2809   3.2809
     4.4403   4.4404   4.4664   4.4665   6.6238   6.6238   8.2098   8.2099
     8.3239   8.3240

     occupation numbers 
     1.0000   1.0000   1.0000   1.0000   1.0000   1.0000   1.0000   1.0000
     1.0000   1.0000   1.0000   1.0000   1.0000   1.0000   1.0000   1.0000
     1.0000   1.0000   1.0000   1.0000   1.0000   1.0000   1.0000   1.0000
     1.0000   1.0000

          k =-0.0000 0.1443-0.2508 (  3816 PWs)   bands (ev):

  -114.2457-114.2456 -68.6327 -68.6311 -68.5904 -68.5902 -68.5900 -68.5898
    -8.8337  -8.5165   2.8708   2.8935   3.0685   3.0949   3.2660   3.3608
     4.3811   4.3970   4.4906   4.5259   6.1630   7.0301   7.9789   8.1714
     8.4270   8.4724

     occupation numbers 
     1.0000   1.0000   1.0000   1.0000   1.0000   1.0000   1.0000   1.0000
     1.0000   1.0000   1.0000   1.0000   1.0000   1.0000   1.0000   1.0000
     1.0000   1.0000   1.0000   1.0000   1.0000   1.0000   1.0000   1.0000
     1.0000   1.0000

          k =-0.0000 0.1443-0.1672 (  3815 PWs)   bands (ev):

  -114.2458-114.2456 -68.6333 -68.6305 -68.5906 -68.5904 -68.5899 -68.5897
    -8.9658  -8.3801   2.8979   2.9647   3.0692   3.1181   3.3204   3.4867
     4.3236   4.3262   4.5263   4.5752   5.6562   7.4039   7.7964   8.0392
     8.5593   8.5947

     occupation numbers 
     1.0000   1.0000   1.0000   1.0000   1.0000   1.0000   1.0000   1.0000
     1.0000   1.0000   1.0000   1.0000   1.0000   1.0000   1.0000   1.0000
     1.0000   1.0000   1.0000   1.0000   1.0000   1.0000   1.0000   1.0000
     1.0000   1.0000

          k =-0.0000 0.1443-0.0836 (  3808 PWs)   bands (ev):

  -114.2458-114.2455 -68.6337 -68.6300 -68.5906 -68.5905 -68.5898 -68.5895
    -9.0533  -8.2885   2.9178   3.0358   3.0740   3.1377   3.4435   3.6058
     4.2687   4.2809   4.5465   4.6300   5.1789   7.6155   7.8323   7.9496
     8.5441   8.6745

     occupation numbers 
     1.0000   1.0000   1.0000   1.0000   1.0000   1.0000   1.0000   1.0000
     1.0000   1.0000   1.0000   1.0000   1.0000   1.0000   1.0000   1.0000
     1.0000   1.0000   1.0000   1.0000   1.0000   1.0000   1.0000   1.0000
     1.0000   1.0000

          k = 0.0000 0.2887-0.0000 (  3813 PWs)   bands (ev):

  -114.2458-114.2455 -68.6334 -68.6303 -68.5912 -68.5908 -68.5905 -68.5896
    -8.8563  -8.1903   2.7919   3.0635   3.2658   3.3584   3.6161   3.7477
     4.1855   4.2606   4.5719   4.8522   5.1210   6.4447   7.0161   7.3301
     8.2399   8.3032

     occupation numbers 
     1.0000   1.0000   1.0000   1.0000   1.0000   1.0000   1.0000   1.0000
     1.0000   1.0000   1.0000   1.0000   1.0000   1.0000   1.0000   1.0000
     1.0000   1.0000   1.0000   1.0000   1.0000   1.0000   1.0000   1.0000
     1.0000   1.0000

          k = 0.0000 0.2887 0.0836 (  3818 PWs)   bands (ev):

  -114.2458-114.2455 -68.6333 -68.6304 -68.5912 -68.5907 -68.5905 -68.5897
    -8.8306  -8.2149   2.7780   3.0145   3.2642   3.3498   3.5451   3.6844
     4.2324   4.2757   4.5625   4.7581   5.3700   6.5073   6.9467   7.3702
     8.2690   8.2979

     occupation numbers 
     1.0000   1.0000   1.0000   1.0000   1.0000   1.0000   1.0000   1.0000
     1.0000   1.0000   1.0000   1.0000   1.0000   1.0000   1.0000   1.0000
     1.0000   1.0000   1.0000   1.0000   1.0000   1.0000   1.0000   1.0000
     1.0000   1.0000

          k = 0.0000 0.2887 0.1672 (  3810 PWs)   bands (ev):

  -114.2457-114.2456 -68.6330 -68.6307 -68.5911 -68.5906 -68.5905 -68.5898
    -8.7574  -8.2854   2.7402   2.8890   3.2623   3.3276   3.4389   3.5611
     4.3167   4.3272   4.5349   4.6736   5.7419   6.5732   6.9691   7.4830
     8.1704   8.3403

     occupation numbers 
     1.0000   1.0000   1.0000   1.0000   1.0000   1.0000   1.0000   1.0000
     1.0000   1.0000   1.0000   1.0000   1.0000   1.0000   1.0000   1.0000
     1.0000   1.0000   1.0000   1.0000   1.0000   1.0000   1.0000   1.0000
     1.0000   1.0000

          k = 0.0000 0.2887 0.2508 (  3814 PWs)   bands (ev):

  -114.2457-114.2456 -68.6325 -68.6312 -68.5910 -68.5907 -68.5904 -68.5900
    -8.6480  -8.3921   2.6994   2.7637   3.2655   3.3008   3.3869   3.4529
     4.3736   4.4281   4.4910   4.6017   6.0268   6.4292   7.3677   7.6477
     8.0196   8.1976

     occupation numbers 
     1.0000   1.0000   1.0000   1.0000   1.0000   1.0000   1.0000   1.0000
     1.0000   1.0000   1.0000   1.0000   1.0000   1.0000   1.0000   1.0000
     1.0000   1.0000   1.0000   1.0000   1.0000   1.0000   1.0000   1.0000
     1.0000   1.0000

          k =-0.0000 0.2887-0.3344 (  3820 PWs)   bands (ev):

  -114.2457-114.2456 -68.6319 -68.6318 -68.5909 -68.5908 -68.5902 -68.5902
    -8.5196  -8.5194   2.6976   2.6976   3.2783   3.2784   3.3925   3.3925
     4.4349   4.4350   4.5211   4.5211   6.2405   6.2406   7.8365   7.8366
     7.8429   7.8430

     occupation numbers 
     1.0000   1.0000   1.0000   1.0000   1.0000   1.0000   1.0000   1.0000
     1.0000   1.0000   1.0000   1.0000   1.0000   1.0000   1.0000   1.0000
     1.0000   1.0000   1.0000   1.0000   1.0000   1.0000   1.0000   1.0000
     1.0000   1.0000

          k =-0.0000 0.2887-0.2508 (  3814 PWs)   bands (ev):

  -114.2457-114.2456 -68.6325 -68.6312 -68.5910 -68.5907 -68.5904 -68.5900
    -8.6480  -8.3921   2.6994   2.7637   3.2655   3.3008   3.3869   3.4529
     4.3736   4.4281   4.4910   4.6017   6.0268   6.4292   7.3678   7.6477
     8.0195   8.1976

     occupation numbers 
     1.0000   1.0000   1.0000   1.0000   1.0000   1.0000   1.0000   1.0000
     1.0000   1.0000   1.0000   1.0000   1.0000   1.0000   1.0000   1.0000
     1.0000   1.0000   1.0000   1.0000   1.0000   1.0000   1.0000   1.0000
     1.0000   1.0000

          k =-0.0000 0.2887-0.1672 (  3810 PWs)   bands (ev):

  -114.2457-114.2456 -68.6330 -68.6307 -68.5911 -68.5906 -68.5905 -68.5898
    -8.7574  -8.2854   2.7402   2.8890   3.2623   3.3276   3.4389   3.5610
     4.3167   4.3272   4.5349   4.6736   5.7419   6.5732   6.9691   7.4830
     8.1704   8.3403

     occupation numbers 
     1.0000   1.0000   1.0000   1.0000   1.0000   1.0000   1.0000   1.0000
     1.0000   1.0000   1.0000   1.0000   1.0000   1.0000   1.0000   1.0000
     1.0000   1.0000   1.0000   1.0000   1.0000   1.0000   1.0000   1.0000
     1.0000   1.0000

          k =-0.0000 0.2887-0.0836 (  3818 PWs)   bands (ev):

  -114.2458-114.2455 -68.6333 -68.6304 -68.5912 -68.5907 -68.5905 -68.5897
    -8.8306  -8.2149   2.7780   3.0145   3.2643   3.3498   3.5451   3.6844
     4.2324   4.2757   4.5625   4.7582   5.3700   6.5073   6.9467   7.3702
     8.2690   8.2979

     occupation numbers 
     1.0000   1.0000   1.0000   1.0000   1.0000   1.0000   1.0000   1.0000
     1.0000   1.0000   1.0000   1.0000   1.0000   1.0000   1.0000   1.0000
     1.0000   1.0000   1.0000   1.0000   1.0000   1.0000   1.0000   1.0000
     1.0000   1.0000

          k = 0.0000 0.4330-0.0000 (  3826 PWs)   bands (ev):

  -114.2457-114.2455 -68.6328 -68.6307 -68.5918 -68.5912 -68.5910 -68.5898
    -8.5882  -8.1551   2.7826   3.0465   3.4487   3.6249   3.6874   4.0291
     4.1662   4.3180   4.5871   4.7857   5.1851   5.6993   6.1852   6.7096
     7.8729   7.9121

     occupation numbers 
     1.0000   1.0000   1.0000   1.0000   1.0000   1.0000   1.0000   1.0000
     1.0000   1.0000   1.0000   1.0000   1.0000   1.0000   1.0000   1.0000
     1.0000   1.0000   1.0000   1.0000   1.0000   1.0000   1.0000   1.0000
     1.0000   1.0000

          k = 0.0000 0.4330 0.0836 (  3818 PWs)   bands (ev):

  -114.2457-114.2455 -68.6327 -68.6308 -68.5918 -68.5912 -68.5909 -68.5898
    -8.5699  -8.1693   2.7589   2.9930   3.4513   3.6137   3.6265   3.9051
     4.2585   4.3279   4.5746   4.7577   5.2315   5.7317   6.3201   6.7605
     7.8331   7.9937

     occupation numbers 
     1.0000   1.0000   1.0000   1.0000   1.0000   1.0000   1.0000   1.0000
     1.0000   1.0000   1.0000   1.0000   1.0000   1.0000   1.0000   1.0000
     1.0000   1.0000   1.0000   1.0000   1.0000   1.0000   1.0000   1.0000
     1.0000   1.0000

          k = 0.0000 0.4330 0.1672 (  3826 PWs)   bands (ev):

  -114.2457-114.2456 -68.6325 -68.6311 -68.5917 -68.5913 -68.5908 -68.5899
    -8.5183  -8.2109   2.6972   2.8559   3.4602   3.5348   3.5840   3.7336
     4.3557   4.3769   4.5414   4.7069   5.3129   5.6908   6.7716   6.9010
     7.7183   8.1281

     occupation numbers 
     1.0000   1.0000   1.0000   1.0000   1.0000   1.0000   1.0000   1.0000
     1.0000   1.0000   1.0000   1.0000   1.0000   1.0000   1.0000   1.0000
     1.0000   1.0000   1.0000   1.0000   1.0000   1.0000   1.0000   1.0000
     1.0000   1.0000

          k = 0.0000 0.4330 0.2508 (  3821 PWs)   bands (ev):

  -114.2457-114.2456 -68.6322 -68.6314 -68.5916 -68.5913 -68.5906 -68.5901
    -8.4430  -8.2762   2.6359   2.7119   3.4786   3.4977   3.5453   3.6010
     4.3969   4.4820   4.4957   4.6459   5.4025   5.5969   7.1018   7.3461
     7.5422   8.1125

     occupation numbers 
     1.0000   1.0000   1.0000   1.0000   1.0000   1.0000   1.0000   1.0000
     1.0000   1.0000   1.0000   1.0000   1.0000   1.0000   1.0000   1.0000
     1.0000   1.0000   1.0000   1.0000   1.0000   1.0000   1.0000   1.0000
     1.0000   1.0000

          k =-0.0000 0.4330-0.3344 (  3830 PWs)   bands (ev):

  -114.2457-114.2456 -68.6319 -68.6318 -68.5915 -68.5914 -68.5904 -68.5903
    -8.3577  -8.3575   2.6314   2.6314   3.5077   3.5077   3.5216   3.5217
     4.4454   4.4455   4.5715   4.5715   5.4978   5.4979   7.3268   7.3270
     7.8381   7.8382

     occupation numbers 
     1.0000   1.0000   1.0000   1.0000   1.0000   1.0000   1.0000   1.0000
     1.0000   1.0000   1.0000   1.0000   1.0000   1.0000   1.0000   1.0000
     1.0000   1.0000   1.0000   1.0000   1.0000   1.0000   1.0000   1.0000
     1.0000   1.0000

          k =-0.0000 0.4330-0.2508 (  3821 PWs)   bands (ev):

  -114.2457-114.2456 -68.6322 -68.6314 -68.5916 -68.5913 -68.5906 -68.5901
    -8.4430  -8.2762   2.6359   2.7119   3.4786   3.4977   3.5453   3.6010
     4.3969   4.4820   4.4957   4.6459   5.4025   5.5968   7.1018   7.3461
     7.5422   8.1125

     occupation numbers 
     1.0000   1.0000   1.0000   1.0000   1.0000   1.0000   1.0000   1.0000
     1.0000   1.0000   1.0000   1.0000   1.0000   1.0000   1.0000   1.0000
     1.0000   1.0000   1.0000   1.0000   1.0000   1.0000   1.0000   1.0000
     1.0000   1.0000

          k =-0.0000 0.4330-0.1672 (  3826 PWs)   bands (ev):

  -114.2457-114.2456 -68.6325 -68.6311 -68.5917 -68.5913 -68.5908 -68.5899
    -8.5183  -8.2109   2.6972   2.8559   3.4603   3.5348   3.5840   3.7336
     4.3557   4.3769   4.5414   4.7069   5.3130   5.6907   6.7716   6.9010
     7.7183   8.1281

     occupation numbers 
     1.0000   1.0000   1.0000   1.0000   1.0000   1.0000   1.0000   1.0000
     1.0000   1.0000   1.0000   1.0000   1.0000   1.0000   1.0000   1.0000
     1.0000   1.0000   1.0000   1.0000   1.0000   1.0000   1.0000   1.0000
     1.0000   1.0000

          k =-0.0000 0.4330-0.0836 (  3818 PWs)   bands (ev):

  -114.2457-114.2455 -68.6327 -68.6308 -68.5918 -68.5912 -68.5909 -68.5898
    -8.5699  -8.1693   2.7589   2.9930   3.4513   3.6137   3.6265   3.9051
     4.2585   4.3279   4.5747   4.7577   5.2316   5.7317   6.3201   6.7605
     7.8331   7.9937

     occupation numbers 
     1.0000   1.0000   1.0000   1.0000   1.0000   1.0000   1.0000   1.0000
     1.0000   1.0000   1.0000   1.0000   1.0000   1.0000   1.0000   1.0000
     1.0000   1.0000   1.0000   1.0000   1.0000   1.0000   1.0000   1.0000
     1.0000   1.0000

          k =-0.0000-0.5774 0.0000 (  3840 PWs)   bands (ev):

  -114.2457-114.2455 -68.6325 -68.6311 -68.5921 -68.5915 -68.5911 -68.5898
    -8.4461  -8.1685   2.9076   2.9505   3.5138   3.7082   3.7620   4.1639
     4.3783   4.3949   4.5925   4.6116   4.9405   5.2787   6.2223   6.4239
     7.6819   7.6979

     occupation numbers 
     1.0000   1.0000   1.0000   1.0000   1.0000   1.0000   1.0000   1.0000
     1.0000   1.0000   1.0000   1.0000   1.0000   1.0000   1.0000   1.0000
     1.0000   1.0000   1.0000   1.0000   1.0000   1.0000   1.0000   1.0000
     1.0000   1.0000

          k = 0.0000-0.5774 0.0836 (  3818 PWs)   bands (ev):

  -114.2457-114.2455 -68.6324 -68.6311 -68.5920 -68.5915 -68.5910 -68.5899
    -8.4330  -8.1762   2.8645   2.9114   3.5196   3.6578   3.7486   4.0694
     4.3840   4.4285   4.5781   4.6181   4.9717   5.2325   6.4379   6.4816
     7.6399   7.7947

     occupation numbers 
     1.0000   1.0000   1.0000   1.0000   1.0000   1.0000   1.0000   1.0000
     1.0000   1.0000   1.0000   1.0000   1.0000   1.0000   1.0000   1.0000
     1.0000   1.0000   1.0000   1.0000   1.0000   1.0000   1.0000   1.0000
     1.0000   1.0000

          k = 0.0000-0.5774 0.1672 (  3828 PWs)   bands (ev):

  -114.2457-114.2456 -68.6323 -68.6313 -68.5920 -68.5915 -68.5909 -68.5900
    -8.3966  -8.1994   2.7569   2.8095   3.5375   3.5886   3.7122   3.8865
     4.4005   4.4891   4.5426   4.6190   5.0280   5.1699   6.6388   6.9233
     7.5184   7.9850

     occupation numbers 
     1.0000   1.0000   1.0000   1.0000   1.0000   1.0000   1.0000   1.0000
     1.0000   1.0000   1.0000   1.0000   1.0000   1.0000   1.0000   1.0000
     1.0000   1.0000   1.0000   1.0000   1.0000   1.0000   1.0000   1.0000
     1.0000   1.0000

          k = 0.0000-0.5774 0.2508 (  3828 PWs)   bands (ev):

  -114.2457-114.2456 -68.6321 -68.6315 -68.5919 -68.5916 -68.5907 -68.5902
    -8.3450  -8.2380   2.6554   2.6937   3.5685   3.5754   3.6627   3.7272
     4.4264   4.5002   4.5413   4.6060   5.0739   5.1323   6.8589   7.3316
     7.4595   8.0607

     occupation numbers 
     1.0000   1.0000   1.0000   1.0000   1.0000   1.0000   1.0000   1.0000
     1.0000   1.0000   1.0000   1.0000   1.0000   1.0000   1.0000   1.0000
     1.0000   1.0000   1.0000   1.0000   1.0000   1.0000   1.0000   1.0000
     1.0000   1.0000

          k =-0.0000-0.5774-0.3344 (  3808 PWs)   bands (ev):

  -114.2456-114.2456 -68.6318 -68.6317 -68.5918 -68.5917 -68.5905 -68.5904
    -8.2889  -8.2887   2.6293   2.6293   3.6117   3.6118   3.6229   3.6230
     4.4601   4.4602   4.5801   4.5801   5.1056   5.1057   7.1018   7.1019
     7.8799   7.8800

     occupation numbers 
     1.0000   1.0000   1.0000   1.0000   1.0000   1.0000   1.0000   1.0000
     1.0000   1.0000   1.0000   1.0000   1.0000   1.0000   1.0000   1.0000
     1.0000   1.0000   1.0000   1.0000   1.0000   1.0000   1.0000   1.0000
     1.0000   1.0000

          k = 0.1250 0.0722-0.0000 (  3805 PWs)   bands (ev):

  -114.2458-114.2455 -68.6338 -68.6299 -68.5907 -68.5905 -68.5898 -68.5895
    -9.0838  -8.2563   2.9248   3.0613   3.0766   3.1455   3.5275   3.6557
     4.2452   4.2651   4.5529   4.6975   4.9198   7.5953   7.9179   8.0329
     8.4496   8.7021

     occupation numbers 
     1.0000   1.0000   1.0000   1.0000   1.0000   1.0000   1.0000   1.0000
     1.0000   1.0000   1.0000   1.0000   1.0000   1.0000   1.0000   1.0000
     1.0000   1.0000   1.0000   1.0000   1.0000   1.0000   1.0000   1.0000
     1.0000   1.0000

          k = 0.1250 0.0722 0.0836 (  3808 PWs)   bands (ev):

  -114.2458-114.2455 -68.6337 -68.6300 -68.5906 -68.5905 -68.5898 -68.5895
    -9.0533  -8.2885   2.9178   3.0358   3.0740   3.1377   3.4435   3.6058
     4.2687   4.2809   4.5465   4.6300   5.1789   7.6155   7.8323   7.9496
     8.5441   8.6745

     occupation numbers 
     1.0000   1.0000   1.0000   1.0000   1.0000   1.0000   1.0000   1.0000
     1.0000   1.0000   1.0000   1.0000   1.0000   1.0000   1.0000   1.0000
     1.0000   1.0000   1.0000   1.0000   1.0000   1.0000   1.0000   1.0000
     1.0000   1.0000

          k = 0.1250 0.0722 0.1672 (  3815 PWs)   bands (ev):

  -114.2458-114.2456 -68.6333 -68.6305 -68.5906 -68.5904 -68.5899 -68.5897
    -8.9658  -8.3801   2.8979   2.9647   3.0692   3.1181   3.3204   3.4867
     4.3236   4.3262   4.5263   4.5752   5.6562   7.4039   7.7964   8.0392
     8.5593   8.5947

     occupation numbers 
     1.0000   1.0000   1.0000   1.0000   1.0000   1.0000   1.0000   1.0000
     1.0000   1.0000   1.0000   1.0000   1.0000   1.0000   1.0000   1.0000
     1.0000   1.0000   1.0000   1.0000   1.0000   1.0000   1.0000   1.0000
     1.0000   1.0000

          k = 0.1250 0.0722 0.2508 (  3816 PWs)   bands (ev):

  -114.2457-114.2456 -68.6327 -68.6311 -68.5904 -68.5902 -68.5900 -68.5898
    -8.8337  -8.5165   2.8708   2.8935   3.0685   3.0949   3.2660   3.3608
     4.3811   4.3970   4.4906   4.5259   6.1630   7.0301   7.9789   8.1714
     8.4270   8.4724

     occupation numbers 
     1.0000   1.0000   1.0000   1.0000   1.0000   1.0000   1.0000   1.0000
     1.0000   1.0000   1.0000   1.0000   1.0000   1.0000   1.0000   1.0000
     1.0000   1.0000   1.0000   1.0000   1.0000   1.0000   1.0000   1.0000
     1.0000   1.0000

          k = 0.1250 0.0722-0.3344 (  3820 PWs)   bands (ev):

  -114.2457-114.2456 -68.6320 -68.6319 -68.5902 -68.5902 -68.5901 -68.5900
    -8.6761  -8.6759   2.8622   2.8622   3.0768   3.0768   3.2809   3.2809
     4.4403   4.4404   4.4664   4.4665   6.6238   6.6238   8.2098   8.2099
     8.3239   8.3240

     occupation numbers 
     1.0000   1.0000   1.0000   1.0000   1.0000   1.0000   1.0000   1.0000
     1.0000   1.0000   1.0000   1.0000   1.0000   1.0000   1.0000   1.0000
     1.0000   1.0000   1.0000   1.0000   1.0000   1.0000   1.0000   1.0000
     1.0000   1.0000

          k = 0.1250 0.0722-0.2508 (  3816 PWs)   bands (ev):

  -114.2457-114.2456 -68.6327 -68.6311 -68.5904 -68.5902 -68.5900 -68.5898
    -8.8337  -8.5165   2.8708   2.8935   3.0685   3.0949   3.2660   3.3608
     4.3811   4.3970   4.4906   4.5259   6.1630   7.0301   7.9789   8.1714
     8.4270   8.4724

     occupation numbers 
     1.0000   1.0000   1.0000   1.0000   1.0000   1.0000   1.0000   1.0000
     1.0000   1.0000   1.0000   1.0000   1.0000   1.0000   1.0000   1.0000
     1.0000   1.0000   1.0000   1.0000   1.0000   1.0000   1.0000   1.0000
     1.0000   1.0000

          k = 0.1250 0.0722-0.1672 (  3815 PWs)   bands (ev):

  -114.2458-114.2456 -68.6333 -68.6305 -68.5906 -68.5904 -68.5899 -68.5897
    -8.9658  -8.3801   2.8979   2.9647   3.0692   3.1181   3.3204   3.4867
     4.3236   4.3262   4.5263   4.5752   5.6562   7.4039   7.7964   8.0392
     8.5593   8.5947

     occupation numbers 
     1.0000   1.0000   1.0000   1.0000   1.0000   1.0000   1.0000   1.0000
     1.0000   1.0000   1.0000   1.0000   1.0000   1.0000   1.0000   1.0000
     1.0000   1.0000   1.0000   1.0000   1.0000   1.0000   1.0000   1.0000
     1.0000   1.0000

          k = 0.1250 0.0722-0.0836 (  3808 PWs)   bands (ev):

  -114.2458-114.2455 -68.6337 -68.6300 -68.5906 -68.5905 -68.5898 -68.5895
    -9.0533  -8.2885   2.9178   3.0358   3.0740   3.1377   3.4435   3.6058
     4.2687   4.2809   4.5465   4.6300   5.1789   7.6155   7.8323   7.9496
     8.5441   8.6745

     occupation numbers 
     1.0000   1.0000   1.0000   1.0000   1.0000   1.0000   1.0000   1.0000
     1.0000   1.0000   1.0000   1.0000   1.0000   1.0000   1.0000   1.0000
     1.0000   1.0000   1.0000   1.0000   1.0000   1.0000   1.0000   1.0000
     1.0000   1.0000

          k = 0.1250 0.2165-0.0000 (  3795 PWs)   bands (ev):

  -114.2458-114.2455 -68.6335 -68.6301 -68.5910 -68.5907 -68.5901 -68.5896
    -8.9261  -8.2077   2.8452   3.0749   3.1770   3.2781   3.6032   3.7093
     4.2064   4.2512   4.5657   4.8551   5.0212   6.9020   7.1094   7.5402
     8.3225   8.3513

     occupation numbers 
     1.0000   1.0000   1.0000   1.0000   1.0000   1.0000   1.0000   1.0000
     1.0000   1.0000   1.0000   1.0000   1.0000   1.0000   1.0000   1.0000
     1.0000   1.0000   1.0000   1.0000   1.0000   1.0000   1.0000   1.0000
     1.0000   1.0000

          k = 0.1250 0.2165 0.0836 (  3809 PWs)   bands (ev):

  -114.2458-114.2455 -68.6334 -68.6303 -68.5910 -68.5907 -68.5902 -68.5897
    -8.8988  -8.2347   2.8342   3.0225   3.1827   3.2686   3.5294   3.6537
     4.2446   4.2679   4.5573   4.7365   5.3113   6.9688   7.0530   7.5201
     8.3171   8.3855

     occupation numbers 
     1.0000   1.0000   1.0000   1.0000   1.0000   1.0000   1.0000   1.0000
     1.0000   1.0000   1.0000   1.0000   1.0000   1.0000   1.0000   1.0000
     1.0000   1.0000   1.0000   1.0000   1.0000   1.0000   1.0000   1.0000
     1.0000   1.0000

          k = 0.1250 0.2165 0.1672 (  3818 PWs)   bands (ev):

  -114.2457-114.2456 -68.6331 -68.6306 -68.5909 -68.5906 -68.5902 -68.5898
    -8.8209  -8.3119   2.8033   2.9007   3.1869   3.2444   3.4206   3.5366
     4.3119   4.3273   4.5320   4.6517   5.7478   6.8816   7.1804   7.5686
     8.2191   8.4226

     occupation numbers 
     1.0000   1.0000   1.0000   1.0000   1.0000   1.0000   1.0000   1.0000
     1.0000   1.0000   1.0000   1.0000   1.0000   1.0000   1.0000   1.0000
     1.0000   1.0000   1.0000   1.0000   1.0000   1.0000   1.0000   1.0000
     1.0000   1.0000

          k = 0.1250 0.2165 0.2508 (  3814 PWs)   bands (ev):

  -114.2457-114.2456 -68.6325 -68.6312 -68.5907 -68.5905 -68.5903 -68.5900
    -8.7040  -8.4282   2.7637   2.7897   3.1892   3.2167   3.3672   3.4302
     4.3710   4.4188   4.4910   4.5836   6.1290   6.6603   7.5329   7.7044
     8.0723   8.2799

     occupation numbers 
     1.0000   1.0000   1.0000   1.0000   1.0000   1.0000   1.0000   1.0000
     1.0000   1.0000   1.0000   1.0000   1.0000   1.0000   1.0000   1.0000
     1.0000   1.0000   1.0000   1.0000   1.0000   1.0000   1.0000   1.0000
     1.0000   1.0000

          k = 0.1250 0.2165-0.3344 (  3804 PWs)   bands (ev):

  -114.2457-114.2456 -68.6319 -68.6318 -68.5906 -68.5906 -68.5902 -68.5901
    -8.5661  -8.5659   2.7462   2.7462   3.1971   3.1971   3.3714   3.3714
     4.4324   4.4325   4.5087   4.5088   6.4191   6.4191   7.8535   7.8536
     7.9824   7.9825

     occupation numbers 
     1.0000   1.0000   1.0000   1.0000   1.0000   1.0000   1.0000   1.0000
     1.0000   1.0000   1.0000   1.0000   1.0000   1.0000   1.0000   1.0000
     1.0000   1.0000   1.0000   1.0000   1.0000   1.0000   1.0000   1.0000
     1.0000   1.0000

          k = 0.1250 0.2165-0.2508 (  3814 PWs)   bands (ev):

  -114.2457-114.2456 -68.6325 -68.6312 -68.5907 -68.5905 -68.5903 -68.5900
    -8.7040  -8.4282   2.7637   2.7897   3.1892   3.2167   3.3672   3.4302
     4.3710   4.4188   4.4910   4.5836   6.1290   6.6603   7.5329   7.7044
     8.0723   8.2799

     occupation numbers 
     1.0000   1.0000   1.0000   1.0000   1.0000   1.0000   1.0000   1.0000
     1.0000   1.0000   1.0000   1.0000   1.0000   1.0000   1.0000   1.0000
     1.0000   1.0000   1.0000   1.0000   1.0000   1.0000   1.0000   1.0000
     1.0000   1.0000

          k = 0.1250 0.2165-0.1672 (  3818 PWs)   bands (ev):

  -114.2457-114.2456 -68.6331 -68.6306 -68.5909 -68.5906 -68.5902 -68.5898
    -8.8209  -8.3119   2.8033   2.9007   3.1869   3.2444   3.4206   3.5366
     4.3119   4.3273   4.5320   4.6517   5.7478   6.8816   7.1804   7.5686
     8.2191   8.4226

     occupation numbers 
     1.0000   1.0000   1.0000   1.0000   1.0000   1.0000   1.0000   1.0000
     1.0000   1.0000   1.0000   1.0000   1.0000   1.0000   1.0000   1.0000
     1.0000   1.0000   1.0000   1.0000   1.0000   1.0000   1.0000   1.0000
     1.0000   1.0000

          k = 0.1250 0.2165-0.0836 (  3809 PWs)   bands (ev):

  -114.2458-114.2455 -68.6334 -68.6303 -68.5910 -68.5907 -68.5902 -68.5897
    -8.8988  -8.2347   2.8342   3.0225   3.1827   3.2686   3.5294   3.6537
     4.2446   4.2679   4.5573   4.7365   5.3113   6.9688   7.0530   7.5201
     8.3171   8.3855

     occupation numbers 
     1.0000   1.0000   1.0000   1.0000   1.0000   1.0000   1.0000   1.0000
     1.0000   1.0000   1.0000   1.0000   1.0000   1.0000   1.0000   1.0000
     1.0000   1.0000   1.0000   1.0000   1.0000   1.0000   1.0000   1.0000
     1.0000   1.0000

          k = 0.1250 0.3608-0.0000 (  3828 PWs)   bands (ev):

  -114.2457-114.2455 -68.6330 -68.6306 -68.5915 -68.5912 -68.5907 -68.5898
    -8.6753  -8.1590   2.8257   3.1176   3.3332   3.4859   3.7293   3.8456
     4.1874   4.2811   4.5821   4.8283   5.3237   5.9979   6.3923   6.6831
     7.8253   8.0418

     occupation numbers 
     1.0000   1.0000   1.0000   1.0000   1.0000   1.0000   1.0000   1.0000
     1.0000   1.0000   1.0000   1.0000   1.0000   1.0000   1.0000   1.0000
     1.0000   1.0000   1.0000   1.0000   1.0000   1.0000   1.0000   1.0000
     1.0000   1.0000

          k = 0.1250 0.3608 0.0836 (  3826 PWs)   bands (ev):

  -114.2457-114.2455 -68.6329 -68.6307 -68.5915 -68.5912 -68.5907 -68.5899
    -8.6543  -8.1768   2.8073   3.0558   3.3408   3.4702   3.6595   3.7692
     4.2461   4.2986   4.5709   4.7848   5.4341   6.0894   6.4203   6.7178
     7.7809   8.1210

     occupation numbers 
     1.0000   1.0000   1.0000   1.0000   1.0000   1.0000   1.0000   1.0000
     1.0000   1.0000   1.0000   1.0000   1.0000   1.0000   1.0000   1.0000
     1.0000   1.0000   1.0000   1.0000   1.0000   1.0000   1.0000   1.0000
     1.0000   1.0000

[...]

  -114.2457-114.2456 -68.6323 -68.6313 -68.5916 -68.5915 -68.5910 -68.5904
    -8.4060  -8.1953   2.9493   3.0428   3.4652   3.4926   3.6220   3.7794
     4.3739   4.3936   4.5747   4.7644   5.2560   5.5689   5.8881   6.8084
     7.1589   8.0063

     occupation numbers 
     1.0000   1.0000   1.0000   1.0000   1.0000   1.0000   1.0000   1.0000
     1.0000   1.0000   1.0000   1.0000   1.0000   1.0000   1.0000   1.0000
     1.0000   1.0000   1.0000   1.0000   1.0000   1.0000   1.0000   1.0000
     1.0000   1.0000

          k =-0.5000-0.0000 0.2508 (  3846 PWs)   bands (ev):

  -114.2457-114.2456 -68.6321 -68.6315 -68.5915 -68.5914 -68.5909 -68.5906
    -8.3515  -8.2371   2.8577   2.8930   3.4527   3.4617   3.5779   3.6870
     4.4076   4.4120   4.6042   4.7161   5.3396   5.4981   6.1157   6.6504
     7.6152   8.1254

     occupation numbers 
     1.0000   1.0000   1.0000   1.0000   1.0000   1.0000   1.0000   1.0000
     1.0000   1.0000   1.0000   1.0000   1.0000   1.0000   1.0000   1.0000
     1.0000   1.0000   1.0000   1.0000   1.0000   1.0000   1.0000   1.0000
     1.0000   1.0000

          k =-0.5000 0.0000-0.3344 (  3836 PWs)   bands (ev):

  -114.2457-114.2456 -68.6318 -68.6318 -68.5915 -68.5914 -68.5908 -68.5907
    -8.2918  -8.2916   2.8246   2.8246   3.4463   3.4464   3.6145   3.6146
     4.4158   4.4159   4.6598   4.6599   5.4198   5.4199   6.3873   6.3874
     7.9960   7.9961

     occupation numbers 
     1.0000   1.0000   1.0000   1.0000   1.0000   1.0000   1.0000   1.0000
     1.0000   1.0000   1.0000   1.0000   1.0000   1.0000   1.0000   1.0000
     1.0000   1.0000   1.0000   1.0000   1.0000   1.0000   1.0000   1.0000
     1.0000   1.0000

          k =-0.5000 0.0000-0.2508 (  3846 PWs)   bands (ev):

  -114.2457-114.2456 -68.6321 -68.6315 -68.5915 -68.5914 -68.5909 -68.5906
    -8.3515  -8.2371   2.8577   2.8930   3.4527   3.4617   3.5779   3.6870
     4.4076   4.4120   4.6042   4.7161   5.3396   5.4981   6.1157   6.6504
     7.6152   8.1254

     occupation numbers 
     1.0000   1.0000   1.0000   1.0000   1.0000   1.0000   1.0000   1.0000
     1.0000   1.0000   1.0000   1.0000   1.0000   1.0000   1.0000   1.0000
     1.0000   1.0000   1.0000   1.0000   1.0000   1.0000   1.0000   1.0000
     1.0000   1.0000

          k =-0.5000 0.0000-0.1672 (  3835 PWs)   bands (ev):

  -114.2457-114.2456 -68.6323 -68.6313 -68.5916 -68.5915 -68.5910 -68.5904
    -8.4060  -8.1953   2.9493   3.0428   3.4652   3.4926   3.6220   3.7794
     4.3739   4.3936   4.5747   4.7644   5.2560   5.5689   5.8881   6.8084
     7.1589   8.0063

     occupation numbers 
     1.0000   1.0000   1.0000   1.0000   1.0000   1.0000   1.0000   1.0000
     1.0000   1.0000   1.0000   1.0000   1.0000   1.0000   1.0000   1.0000
     1.0000   1.0000   1.0000   1.0000   1.0000   1.0000   1.0000   1.0000
     1.0000   1.0000

          k =-0.5000 0.0000-0.0836 (  3834 PWs)   bands (ev):

  -114.2457-114.2455 -68.6324 -68.6311 -68.5917 -68.5915 -68.5910 -68.5902
    -8.4442  -8.1697   3.0296   3.1809   3.4538   3.5534   3.7615   3.8773
     4.2976   4.3732   4.5823   4.8013   5.1726   5.5784   5.7888   6.5302
     7.1161   7.7870

     occupation numbers 
     1.0000   1.0000   1.0000   1.0000   1.0000   1.0000   1.0000   1.0000
     1.0000   1.0000   1.0000   1.0000   1.0000   1.0000   1.0000   1.0000
     1.0000   1.0000   1.0000   1.0000   1.0000   1.0000   1.0000   1.0000
     1.0000   1.0000

          k =-0.5000 0.1443-0.0000 (  3837 PWs)   bands (ev):

  -114.2457-114.2455 -68.6325 -68.6311 -68.5920 -68.5914 -68.5911 -68.5900
    -8.4521  -8.1648   2.9562   3.1070   3.4639   3.6331   3.8159   4.1555
     4.2193   4.3719   4.5932   4.7025   5.0315   5.4640   5.9587   6.4118
     7.4150   7.6977

     occupation numbers 
     1.0000   1.0000   1.0000   1.0000   1.0000   1.0000   1.0000   1.0000
     1.0000   1.0000   1.0000   1.0000   1.0000   1.0000   1.0000   1.0000
     1.0000   1.0000   1.0000   1.0000   1.0000   1.0000   1.0000   1.0000
     1.0000   1.0000

          k =-0.5000 0.1443 0.0836 (  3841 PWs)   bands (ev):

  -114.2457-114.2455 -68.6324 -68.6311 -68.5919 -68.5914 -68.5911 -68.5900
    -8.4387  -8.1729   2.9234   3.0549   3.4699   3.6016   3.7782   4.0034
     4.3154   4.3866   4.5819   4.7028   5.0563   5.4232   6.0547   6.5845
     7.3696   7.7979

     occupation numbers 
     1.0000   1.0000   1.0000   1.0000   1.0000   1.0000   1.0000   1.0000
     1.0000   1.0000   1.0000   1.0000   1.0000   1.0000   1.0000   1.0000
     1.0000   1.0000   1.0000   1.0000   1.0000   1.0000   1.0000   1.0000
     1.0000   1.0000

          k =-0.5000 0.1443 0.1672 (  3833 PWs)   bands (ev):

  -114.2457-114.2455 -68.6323 -68.6313 -68.5918 -68.5914 -68.5910 -68.5902
    -8.4014  -8.1973   2.8364   2.9216   3.4842   3.5572   3.7050   3.8193
     4.3869   4.4194   4.5664   4.6910   5.1105   5.3536   6.2520   7.0174
     7.2457   8.0016

     occupation numbers 
     1.0000   1.0000   1.0000   1.0000   1.0000   1.0000   1.0000   1.0000
     1.0000   1.0000   1.0000   1.0000   1.0000   1.0000   1.0000   1.0000
     1.0000   1.0000   1.0000   1.0000   1.0000   1.0000   1.0000   1.0000
     1.0000   1.0000

          k =-0.5000 0.1443 0.2508 (  3826 PWs)   bands (ev):

  -114.2457-114.2456 -68.6321 -68.6315 -68.5917 -68.5915 -68.5908 -68.5903
    -8.3483  -8.2375   2.7442   2.7847   3.5030   3.5602   3.6227   3.6914
     4.4152   4.4436   4.5814   4.6627   5.1714   5.2900   6.4949   7.0082
     7.5613   8.1023

     occupation numbers 
     1.0000   1.0000   1.0000   1.0000   1.0000   1.0000   1.0000   1.0000
     1.0000   1.0000   1.0000   1.0000   1.0000   1.0000   1.0000   1.0000
     1.0000   1.0000   1.0000   1.0000   1.0000   1.0000   1.0000   1.0000
     1.0000   1.0000

          k =-0.5000 0.1443-0.3344 (  3820 PWs)   bands (ev):

  -114.2457-114.2456 -68.6318 -68.6317 -68.5916 -68.5915 -68.5906 -68.5905
    -8.2903  -8.2901   2.7169   2.7169   3.5418   3.5419   3.6157   3.6157
     4.4347   4.4348   4.6228   4.6228   5.2311   5.2312   6.7582   6.7583
     7.9534   7.9535

     occupation numbers 
     1.0000   1.0000   1.0000   1.0000   1.0000   1.0000   1.0000   1.0000
     1.0000   1.0000   1.0000   1.0000   1.0000   1.0000   1.0000   1.0000
     1.0000   1.0000   1.0000   1.0000   1.0000   1.0000   1.0000   1.0000
     1.0000   1.0000

          k =-0.5000 0.1443-0.2508 (  3826 PWs)   bands (ev):

  -114.2457-114.2456 -68.6321 -68.6315 -68.5917 -68.5915 -68.5908 -68.5903
    -8.3483  -8.2375   2.7442   2.7847   3.5030   3.5602   3.6227   3.6914
     4.4152   4.4436   4.5814   4.6627   5.1714   5.2900   6.4949   7.0082
     7.5613   8.1023

     occupation numbers 
     1.0000   1.0000   1.0000   1.0000   1.0000   1.0000   1.0000   1.0000
     1.0000   1.0000   1.0000   1.0000   1.0000   1.0000   1.0000   1.0000
     1.0000   1.0000   1.0000   1.0000   1.0000   1.0000   1.0000   1.0000
     1.0000   1.0000

          k =-0.5000 0.1443-0.1672 (  3833 PWs)   bands (ev):

  -114.2457-114.2455 -68.6323 -68.6313 -68.5918 -68.5914 -68.5910 -68.5902
    -8.4014  -8.1973   2.8365   2.9216   3.4842   3.5572   3.7050   3.8193
     4.3869   4.4194   4.5664   4.6910   5.1104   5.3536   6.2520   7.0174
     7.2457   8.0016

     occupation numbers 
     1.0000   1.0000   1.0000   1.0000   1.0000   1.0000   1.0000   1.0000
     1.0000   1.0000   1.0000   1.0000   1.0000   1.0000   1.0000   1.0000
     1.0000   1.0000   1.0000   1.0000   1.0000   1.0000   1.0000   1.0000
     1.0000   1.0000

          k =-0.5000 0.1443-0.0836 (  3841 PWs)   bands (ev):

  -114.2457-114.2455 -68.6324 -68.6311 -68.5919 -68.5914 -68.5911 -68.5900
    -8.4387  -8.1729   2.9234   3.0549   3.4698   3.6016   3.7782   4.0034
     4.3154   4.3866   4.5819   4.7028   5.0563   5.4232   6.0548   6.5845
     7.3696   7.7979

     occupation numbers 
     1.0000   1.0000   1.0000   1.0000   1.0000   1.0000   1.0000   1.0000
     1.0000   1.0000   1.0000   1.0000   1.0000   1.0000   1.0000   1.0000
     1.0000   1.0000   1.0000   1.0000   1.0000   1.0000   1.0000   1.0000
     1.0000   1.0000

          k =-0.5000-0.8660 0.0000 (  3840 PWs)   bands (ev):

  -114.2457-114.2455 -68.6325 -68.6311 -68.5921 -68.5915 -68.5911 -68.5898
    -8.4461  -8.1685   2.9076   2.9505   3.5138   3.7082   3.7620   4.1639
     4.3783   4.3949   4.5925   4.6116   4.9405   5.2787   6.2223   6.4239
     7.6819   7.6979

     occupation numbers 
     1.0000   1.0000   1.0000   1.0000   1.0000   1.0000   1.0000   1.0000
     1.0000   1.0000   1.0000   1.0000   1.0000   1.0000   1.0000   1.0000
     1.0000   1.0000   1.0000   1.0000   1.0000   1.0000   1.0000   1.0000
     1.0000   1.0000

          k =-0.5000-0.8660 0.0836 (  3818 PWs)   bands (ev):

  -114.2457-114.2455 -68.6324 -68.6311 -68.5920 -68.5915 -68.5910 -68.5899
    -8.4330  -8.1762   2.8645   2.9114   3.5196   3.6578   3.7486   4.0694
     4.3840   4.4285   4.5781   4.6181   4.9717   5.2325   6.4379   6.4816
     7.6399   7.7947

     occupation numbers 
     1.0000   1.0000   1.0000   1.0000   1.0000   1.0000   1.0000   1.0000
     1.0000   1.0000   1.0000   1.0000   1.0000   1.0000   1.0000   1.0000
     1.0000   1.0000   1.0000   1.0000   1.0000   1.0000   1.0000   1.0000
     1.0000   1.0000

          k =-0.5000-0.8660 0.1672 (  3828 PWs)   bands (ev):

  -114.2457-114.2456 -68.6323 -68.6313 -68.5920 -68.5915 -68.5909 -68.5900
    -8.3966  -8.1994   2.7569   2.8095   3.5375   3.5886   3.7122   3.8865
     4.4005   4.4891   4.5426   4.6190   5.0280   5.1699   6.6388   6.9233
     7.5184   7.9850

     occupation numbers 
     1.0000   1.0000   1.0000   1.0000   1.0000   1.0000   1.0000   1.0000
     1.0000   1.0000   1.0000   1.0000   1.0000   1.0000   1.0000   1.0000
     1.0000   1.0000   1.0000   1.0000   1.0000   1.0000   1.0000   1.0000
     1.0000   1.0000

          k =-0.5000-0.8660 0.2508 (  3828 PWs)   bands (ev):

  -114.2457-114.2456 -68.6321 -68.6315 -68.5919 -68.5916 -68.5907 -68.5902
    -8.3450  -8.2380   2.6554   2.6937   3.5685   3.5754   3.6627   3.7272
     4.4264   4.5002   4.5413   4.6060   5.0739   5.1323   6.8589   7.3316
     7.4595   8.0607

     occupation numbers 
     1.0000   1.0000   1.0000   1.0000   1.0000   1.0000   1.0000   1.0000
     1.0000   1.0000   1.0000   1.0000   1.0000   1.0000   1.0000   1.0000
     1.0000   1.0000   1.0000   1.0000   1.0000   1.0000   1.0000   1.0000
     1.0000   1.0000

          k =-0.5000-0.8660-0.3344 (  3808 PWs)   bands (ev):

  -114.2456-114.2456 -68.6318 -68.6317 -68.5918 -68.5917 -68.5905 -68.5904
    -8.2889  -8.2887   2.6293   2.6293   3.6117   3.6117   3.6229   3.6230
     4.4601   4.4602   4.5801   4.5801   5.1056   5.1057   7.1018   7.1019
     7.8799   7.8800

     occupation numbers 
     1.0000   1.0000   1.0000   1.0000   1.0000   1.0000   1.0000   1.0000
     1.0000   1.0000   1.0000   1.0000   1.0000   1.0000   1.0000   1.0000
     1.0000   1.0000   1.0000   1.0000   1.0000   1.0000   1.0000   1.0000
     1.0000   1.0000

     highest occupied level (ev):     8.8589

!    total energy              =    -987.07392094 Ry
     Harris-Foulkes estimate   =    -987.07392097 Ry
     estimated scf accuracy    <       0.00000007 Ry

     The total energy is the sum of the following terms:

     one-electron contribution =    -801.10179695 Ry
     hartree contribution      =     422.15418129 Ry
     xc contribution           =     -98.08010711 Ry
     ewald contribution        =    -510.04619817 Ry

     convergence has been achieved in   7 iterations

     Forces acting on atoms (cartesian axes, Ry/au):

     atom    1 type  2   force =    -0.00000075   -0.00000006    0.01342038
     atom    2 type  2   force =    -0.00000051    0.00000016    0.01341692
     atom    3 type  1   force =     0.00000146   -0.00000006   -0.01343744
     atom    4 type  1   force =    -0.00000021   -0.00000004   -0.01339985
     The non-local contrib.  to forces
     atom    1 type  2   force =     0.00000086   -0.00000273    0.02731141
     atom    2 type  2   force =    -0.00000015    0.00000040    0.02730794
     atom    3 type  1   force =    -0.00000021   -0.00000397    0.08655576
     atom    4 type  1   force =     0.00000254   -0.00000058    0.08657352
     The ionic contribution  to forces
     atom    1 type  2   force =    -0.00001598    0.00003329   -0.45800315
     atom    2 type  2   force =     0.00000172    0.00000486   -0.45800144
     atom    3 type  1   force =    -0.00000277   -0.00001879    0.45800621
     atom    4 type  1   force =     0.00001703   -0.00001936    0.45799838
     The local contribution  to forces
     atom    1 type  2   force =     0.00001379   -0.00003037    0.44434648
     atom    2 type  2   force =    -0.00000213   -0.00000499    0.44435572
     atom    3 type  1   force =     0.00000343    0.00002376   -0.55808278
     atom    4 type  1   force =    -0.00002064    0.00001983   -0.55813477
     The core correction contribution to forces
     atom    1 type  2   force =    -0.00000001    0.00000000   -0.00014548
     atom    2 type  2   force =     0.00000001   -0.00000001   -0.00014544
     atom    3 type  1   force =     0.00000000    0.00000000    0.00000000
     atom    4 type  1   force =     0.00000000    0.00000000    0.00000000
     The Hubbard contrib.    to forces
     atom    1 type  2   force =     0.00000000    0.00000000    0.00000000
     atom    2 type  2   force =     0.00000000    0.00000000    0.00000000
     atom    3 type  1   force =     0.00000000    0.00000000    0.00000000
     atom    4 type  1   force =     0.00000000    0.00000000    0.00000000
     The SCF correction term to forces
     atom    1 type  2   force =     0.00000000    0.00000000    0.00000000
     atom    2 type  2   force =     0.00000000    0.00000000    0.00000000
     atom    3 type  1   force =     0.00000000    0.00000000    0.00000000
     atom    4 type  1   force =     0.00000000    0.00000000    0.00000000

     Total force =     0.000000     Total SCF correction =     0.000000


     Computing stress (Cartesian axis) and pressure

          total   stress  (Ry/bohr**3)                   (kbar)     P=   -2.13
  -0.00001087   0.00000001  -0.00000000         -1.60      0.00     -0.00
   0.00000001  -0.00001088  -0.00000001          0.00     -1.60     -0.00
  -0.00000000  -0.00000001  -0.00002170         -0.00     -0.00     -3.19

     kinetic stress (kbar)  34028.00     -0.00      0.00
                               -0.00  34028.00     -0.00
                                0.00     -0.00  34350.05

     local   stress (kbar)  -4387.88     -0.05      0.03
                               -0.05  -4388.01     -0.08
                                0.03     -0.08  -4167.21

     nonloc. stress (kbar)  -1660.61      0.00     -0.00
                                0.00  -1660.61      0.00
                               -0.00      0.00  -1792.85

     hartree stress (kbar)  65077.20      0.02     -0.01
                                0.02  65077.26      0.03
                               -0.01      0.03  66007.61

     exc-cor stress (kbar) -14252.19      0.00     -0.00
                                0.00 -14252.19      0.00
                               -0.00      0.00 -14257.51

     corecor stress (kbar)   -250.68      0.00     -0.00
                                0.00   -250.68      0.00
                               -0.00      0.00   -251.30

     ewald   stress (kbar) -78555.44      0.03     -0.02
                                0.03 -78555.36      0.04
                               -0.02      0.04 -79891.99

     hubbard stress (kbar)      0.00      0.00      0.00
                                0.00      0.00      0.00
                                0.00      0.00      0.00

     london  stress (kbar)      0.00      0.00      0.00
                                0.00      0.00      0.00
                                0.00      0.00      0.00

     DFT-D3  stress (kbar)      0.00      0.00      0.00
                                0.00      0.00      0.00
                                0.00      0.00      0.00

     XDM     stress (kbar)      0.00      0.00      0.00
                                0.00      0.00      0.00
                                0.00      0.00      0.00

     dft-nl  stress (kbar)      0.00      0.00      0.00
                                0.00      0.00      0.00
                                0.00      0.00      0.00

     TS-vdW  stress (kbar)      0.00      0.00      0.00
                                0.00      0.00      0.00
                                0.00      0.00      0.00



     Writing output data file ZnO.save/
 
     init_run     :      0.53s CPU      2.13s WALL (       1 calls)
     electrons    :      6.85s CPU      7.46s WALL (       1 calls)
     forces       :      0.15s CPU      0.32s WALL (       1 calls)
     stress       :      0.28s CPU      0.39s WALL (       1 calls)

     Called by init_run:
     wfcinit      :      0.39s CPU      1.52s WALL (       1 calls)
     wfcinit:atom :      0.00s CPU      0.01s WALL (      65 calls)
     wfcinit:wfcr :      0.36s CPU      1.47s WALL (      65 calls)
     potinit      :      0.06s CPU      0.26s WALL (       1 calls)
     hinit0       :      0.07s CPU      0.19s WALL (       1 calls)

     Called by electrons:
     c_bands      :      5.78s CPU      6.20s WALL (       7 calls)
     sum_band     :      0.83s CPU      0.90s WALL (       7 calls)
     v_of_rho     :      0.22s CPU      0.41s WALL (       8 calls)
     v_h          :      0.00s CPU      0.00s WALL (       8 calls)
     v_xc         :      0.27s CPU      0.45s WALL (      10 calls)
     newd         :      0.04s CPU      0.05s WALL (       8 calls)
     mix_rho      :      0.01s CPU      0.02s WALL (       7 calls)

     Called by c_bands:
     init_us_2    :      0.07s CPU      0.10s WALL (    1105 calls)
     cegterg      :      5.45s CPU      5.71s WALL (     455 calls)

     Called by sum_band:
     sum_band:bec :      0.01s CPU      0.01s WALL (     455 calls)
     addusdens    :      0.03s CPU      0.04s WALL (       7 calls)

     Called by *egterg:
     h_psi        :      3.44s CPU      3.58s WALL (    1451 calls)
     s_psi        :      0.11s CPU      0.12s WALL (    1451 calls)
     g_psi        :      0.01s CPU      0.01s WALL (     931 calls)
     cdiaghg      :      1.41s CPU      2.49s WALL (    1386 calls)
     cegterg:over :      0.35s CPU      0.40s WALL (     931 calls)
     cegterg:upda :      0.19s CPU      0.20s WALL (     931 calls)
     cegterg:last :      0.13s CPU      0.13s WALL (     455 calls)
     cdiaghg:chol :      0.08s CPU      0.74s WALL (    1386 calls)
     cdiaghg:inve :      0.02s CPU      0.08s WALL (    1386 calls)
     cdiaghg:para :      0.14s CPU      0.15s WALL (    2772 calls)

     Called by h_psi:
     h_psi:pot    :      3.43s CPU      3.57s WALL (    1451 calls)
     h_psi:calbec :      0.20s CPU      0.22s WALL (    1451 calls)
     vloc_psi     :      3.11s CPU      3.23s WALL (    1451 calls)
     add_vuspsi   :      0.11s CPU      0.12s WALL (    1451 calls)

     General routines
     calbec       :      0.32s CPU      0.34s WALL (    2231 calls)
     fft          :      0.04s CPU      0.09s WALL (     127 calls)
     ffts         :      0.00s CPU      0.00s WALL (      15 calls)
     fftw         :      3.56s CPU      3.69s WALL (   73876 calls)
     interpolate  :      0.00s CPU      0.00s WALL (       8 calls)
 
     Parallel routines
     fft_scatt_xy :      0.49s CPU      0.51s WALL (   74018 calls)
     fft_scatt_yz :      1.88s CPU      1.95s WALL (   74018 calls)
 
     PWSCF        :      8.14s CPU     12.73s WALL

 
   This run was terminated on:  20:44:30  15Jun2022            

=------------------------------------------------------------------------------=
   JOB DONE.
=------------------------------------------------------------------------------=
